 Entering Gaussian System, Link 0=/home/gau/soft/g16/g16
 Initial command:
 /home/gau/soft/g16/l1.exe "/home/gau/soft/scratch/Gau-36182.inp" -scrdir="/home/gau/soft/scratch/"
 Entering Link 1 = /home/gau/soft/g16/l1.exe PID=     36183.
  
 Copyright (c) 1988-2019, Gaussian, Inc.  All Rights Reserved.
  
 This is part of the Gaussian(R) 16 program.  It is based on
 the Gaussian(R) 09 system (copyright 2009, Gaussian, Inc.),
 the Gaussian(R) 03 system (copyright 2003, Gaussian, Inc.),
 the Gaussian(R) 98 system (copyright 1998, Gaussian, Inc.),
 the Gaussian(R) 94 system (copyright 1995, Gaussian, Inc.),
 the Gaussian 92(TM) system (copyright 1992, Gaussian, Inc.),
 the Gaussian 90(TM) system (copyright 1990, Gaussian, Inc.),
 the Gaussian 88(TM) system (copyright 1988, Gaussian, Inc.),
 the Gaussian 86(TM) system (copyright 1986, Carnegie Mellon
 University), and the Gaussian 82(TM) system (copyright 1983,
 Carnegie Mellon University). Gaussian is a federally registered
 trademark of Gaussian, Inc.
  
 This software contains proprietary and confidential information,
 including trade secrets, belonging to Gaussian, Inc.
  
 This software is provided under written license and may be
 used, copied, transmitted, or stored only in accord with that
 written license.
  
 The following legend is applicable only to US Government
 contracts under FAR:
  
                    RESTRICTED RIGHTS LEGEND
  
 Use, reproduction and disclosure by the US Government is
 subject to restrictions as set forth in subparagraphs (a)
 and (c) of the Commercial Computer Software - Restricted
 Rights clause in FAR 52.227-19.
  
 Gaussian, Inc.
 340 Quinnipiac St., Bldg. 40, Wallingford CT 06492
  
  
 ---------------------------------------------------------------
 Warning -- This program may not be used in any manner that
 competes with the business of Gaussian, Inc. or will provide
 assistance to any competitor of Gaussian, Inc.  The licensee
 of this program is prohibited from giving any competitor of
 Gaussian, Inc. access to this program.  By using this program,
 the user acknowledges that Gaussian, Inc. is engaged in the
 business of creating and licensing software in the field of
 computational chemistry and represents and warrants to the
 licensee that it is not a competitor of Gaussian, Inc. and that
 it will not use this program in any manner prohibited above.
 ---------------------------------------------------------------
  

 Cite this work as:
 Gaussian 16, Revision C.01,
 M. J. Frisch, G. W. Trucks, H. B. Schlegel, G. E. Scuseria, 
 M. A. Robb, J. R. Cheeseman, G. Scalmani, V. Barone, 
 G. A. Petersson, H. Nakatsuji, X. Li, M. Caricato, A. V. Marenich, 
 J. Bloino, B. G. Janesko, R. Gomperts, B. Mennucci, H. P. Hratchian, 
 J. V. Ortiz, A. F. Izmaylov, J. L. Sonnenberg, D. Williams-Young, 
 F. Ding, F. Lipparini, F. Egidi, J. Goings, B. Peng, A. Petrone, 
 T. Henderson, D. Ranasinghe, V. G. Zakrzewski, J. Gao, N. Rega, 
 G. Zheng, W. Liang, M. Hada, M. Ehara, K. Toyota, R. Fukuda, 
 J. Hasegawa, M. Ishida, T. Nakajima, Y. Honda, O. Kitao, H. Nakai, 
 T. Vreven, K. Throssell, J. A. Montgomery, Jr., J. E. Peralta, 
 F. Ogliaro, M. J. Bearpark, J. J. Heyd, E. N. Brothers, K. N. Kudin, 
 V. N. Staroverov, T. A. Keith, R. Kobayashi, J. Normand, 
 K. Raghavachari, A. P. Rendell, J. C. Burant, S. S. Iyengar, 
 J. Tomasi, M. Cossi, J. M. Millam, M. Klene, C. Adamo, R. Cammi, 
 J. W. Ochterski, R. L. Martin, K. Morokuma, O. Farkas, 
 J. B. Foresman, and D. J. Fox, Gaussian, Inc., Wallingford CT, 2019.
 
 ******************************************
 Gaussian 16:  ES64L-G16RevC.01  3-Jul-2019
                 7-Dec-2023 
 ******************************************
 %mem=10GB
 %nprocshared=48
 Will use up to   48 processors via shared memory.
 ----------------------------------------------------------------------
 # opt=(calcfc,ts,noeigentest) freq 6-31+g(d,p) scrf=(smd,solvent=water
 ) integral=grid=ultrafine m062x
 ----------------------------------------------------------------------
 1/5=1,10=4,11=1,18=20,26=6,38=1/1,3;
 2/9=110,12=2,17=6,18=5,40=1/2;
 3/5=1,6=6,7=111,11=2,25=1,30=1,70=32201,71=2,72=1,74=-55,75=-5,140=1/1,2,3;
 4//1;
 5/5=2,38=5,53=1/2;
 8/6=4,10=90,11=11/1;
 11/6=1,8=1,9=11,15=111,16=1/1,2,10;
 10/6=1,13=1/2;
 6/7=2,8=2,9=2,10=2,28=1/1;
 7/10=1,25=1/1,2,3,16;
 1/5=1,10=4,11=1,18=20,26=6/3(2);
 2/9=110/2;
 99//99;
 2/9=110/2;
 3/5=1,6=6,7=111,11=2,25=1,30=1,70=32205,71=1,72=1,74=-55,75=-5/1,2,3;
 4/5=5,16=3,69=1/1;
 5/5=2,38=5,53=1/2;
 7//1,2,3,16;
 1/5=1,11=1,18=20,26=6/3(-5);
 2/9=110/2;
 6/7=2,8=2,9=2,10=2,19=2,28=1/1;
 99/9=1/99;
 ----
 test
 ----
 Symbolic Z-matrix:
 Charge =  0 Multiplicity = 1
 N                    -0.35147  -0.97899  -0.01227 
 N                    -0.39273   0.35665   0.00036 
 C                    -1.67717   0.76913   0.01049 
 C                    -2.41504  -0.39134   0.00406 
 N                    -1.55975  -1.44461  -0.00977 
 H                    -1.94469   1.81359   0.01995 
 H                    -3.48453  -0.52754   0.00782 
 H                     2.2632   -0.91215   0.25986 
 C                     0.82923   1.22179  -0.00099 
 O                     0.57298   2.42336   0.01967 
 O                     1.91449   0.61133  -0.02376 
 H                     0.87308  -1.72016   0.26009 
 O                     1.94468  -1.92872   0.39855 
 H                     2.26974  -2.49433  -0.32385 
 
 Add virtual bond connecting atoms H8         and O11        Dist= 3.00D+00.
 Add virtual bond connecting atoms H12        and N1         Dist= 2.75D+00.

 GradGradGradGradGradGradGradGradGradGradGradGradGradGradGradGradGradGrad
 Berny optimization.
 Initialization pass.
                           ----------------------------
                           !    Initial Parameters    !
                           ! (Angstroms and Degrees)  !
 --------------------------                            --------------------------
 ! Name  Definition              Value          Derivative Info.                !
 --------------------------------------------------------------------------------
 ! R1    R(1,2)                  1.3363         calculate D2E/DX2 analytically  !
 ! R2    R(1,5)                  1.2949         calculate D2E/DX2 analytically  !
 ! R3    R(1,12)                 1.4571         calculate D2E/DX2 analytically  !
 ! R4    R(2,3)                  1.3491         calculate D2E/DX2 analytically  !
 ! R5    R(2,9)                  1.4972         calculate D2E/DX2 analytically  !
 ! R6    R(3,4)                  1.3752         calculate D2E/DX2 analytically  !
 ! R7    R(3,6)                  1.0782         calculate D2E/DX2 analytically  !
 ! R8    R(4,5)                  1.3569         calculate D2E/DX2 analytically  !
 ! R9    R(4,7)                  1.0781         calculate D2E/DX2 analytically  !
 ! R10   R(8,11)                 1.5884         calculate D2E/DX2 analytically  !
 ! R11   R(8,13)                 1.0743         calculate D2E/DX2 analytically  !
 ! R12   R(9,10)                 1.2288         calculate D2E/DX2 analytically  !
 ! R13   R(9,11)                 1.2454         calculate D2E/DX2 analytically  !
 ! R14   R(12,13)                1.1005         calculate D2E/DX2 analytically  !
 ! R15   R(13,14)                0.9734         calculate D2E/DX2 analytically  !
 ! A1    A(2,1,5)              109.3033         calculate D2E/DX2 analytically  !
 ! A2    A(2,1,12)             122.1808         calculate D2E/DX2 analytically  !
 ! A3    A(5,1,12)             126.9367         calculate D2E/DX2 analytically  !
 ! A4    A(1,2,3)              109.5761         calculate D2E/DX2 analytically  !
 ! A5    A(1,2,9)              123.5268         calculate D2E/DX2 analytically  !
 ! A6    A(3,2,9)              126.8969         calculate D2E/DX2 analytically  !
 ! A7    A(2,3,4)              104.6433         calculate D2E/DX2 analytically  !
 ! A8    A(2,3,6)              122.1725         calculate D2E/DX2 analytically  !
 ! A9    A(4,3,6)              133.1842         calculate D2E/DX2 analytically  !
 ! A10   A(3,4,5)              108.4741         calculate D2E/DX2 analytically  !
 ! A11   A(3,4,7)              129.7052         calculate D2E/DX2 analytically  !
 ! A12   A(5,4,7)              121.8207         calculate D2E/DX2 analytically  !
 ! A13   A(1,5,4)              108.0032         calculate D2E/DX2 analytically  !
 ! A14   A(11,8,13)            149.9462         calculate D2E/DX2 analytically  !
 ! A15   A(2,9,10)             113.2556         calculate D2E/DX2 analytically  !
 ! A16   A(2,9,11)             115.3399         calculate D2E/DX2 analytically  !
 ! A17   A(10,9,11)            131.4044         calculate D2E/DX2 analytically  !
 ! A18   A(8,11,9)             131.1622         calculate D2E/DX2 analytically  !
 ! A19   A(1,12,13)            159.7701         calculate D2E/DX2 analytically  !
 ! A20   A(8,13,12)             95.3434         calculate D2E/DX2 analytically  !
 ! A21   A(8,13,14)            110.7957         calculate D2E/DX2 analytically  !
 ! A22   A(12,13,14)           109.9952         calculate D2E/DX2 analytically  !
 ! D1    D(5,1,2,3)             -0.0428         calculate D2E/DX2 analytically  !
 ! D2    D(5,1,2,9)           -179.8866         calculate D2E/DX2 analytically  !
 ! D3    D(12,1,2,3)          -166.6264         calculate D2E/DX2 analytically  !
 ! D4    D(12,1,2,9)            13.5298         calculate D2E/DX2 analytically  !
 ! D5    D(2,1,5,4)              0.0348         calculate D2E/DX2 analytically  !
 ! D6    D(12,1,5,4)           165.8122         calculate D2E/DX2 analytically  !
 ! D7    D(2,1,12,13)          -15.9232         calculate D2E/DX2 analytically  !
 ! D8    D(5,1,12,13)          179.9773         calculate D2E/DX2 analytically  !
 ! D9    D(1,2,3,4)              0.0319         calculate D2E/DX2 analytically  !
 ! D10   D(1,2,3,6)           -179.9015         calculate D2E/DX2 analytically  !
 ! D11   D(9,2,3,4)            179.8692         calculate D2E/DX2 analytically  !
 ! D12   D(9,2,3,6)             -0.0642         calculate D2E/DX2 analytically  !
 ! D13   D(1,2,9,10)          -179.6129         calculate D2E/DX2 analytically  !
 ! D14   D(1,2,9,11)             0.4511         calculate D2E/DX2 analytically  !
 ! D15   D(3,2,9,10)             0.5711         calculate D2E/DX2 analytically  !
 ! D16   D(3,2,9,11)          -179.3649         calculate D2E/DX2 analytically  !
 ! D17   D(2,3,4,5)             -0.0108         calculate D2E/DX2 analytically  !
 ! D18   D(2,3,4,7)           -179.9677         calculate D2E/DX2 analytically  !
 ! D19   D(6,3,4,5)            179.9119         calculate D2E/DX2 analytically  !
 ! D20   D(6,3,4,7)             -0.045          calculate D2E/DX2 analytically  !
 ! D21   D(3,4,5,1)             -0.0146         calculate D2E/DX2 analytically  !
 ! D22   D(7,4,5,1)            179.9464         calculate D2E/DX2 analytically  !
 ! D23   D(13,8,11,9)           13.5253         calculate D2E/DX2 analytically  !
 ! D24   D(11,8,13,12)           0.2937         calculate D2E/DX2 analytically  !
 ! D25   D(11,8,13,14)         114.0525         calculate D2E/DX2 analytically  !
 ! D26   D(2,9,11,8)           -15.1064         calculate D2E/DX2 analytically  !
 ! D27   D(10,9,11,8)          164.972          calculate D2E/DX2 analytically  !
 ! D28   D(1,12,13,8)            3.3833         calculate D2E/DX2 analytically  !
 ! D29   D(1,12,13,14)        -111.0412         calculate D2E/DX2 analytically  !
 --------------------------------------------------------------------------------
 Trust Radius=3.00D-01 FncErr=5.00D-06 GrdErr=5.00D-06 EigMax=2.50D+02 EigMin=1.00D-04
 Number of steps in this run=     76 maximum allowed number of steps=    100.
 Search for a saddle point of order  1.
 GradGradGradGradGradGradGradGradGradGradGradGradGradGradGradGradGradGrad

                          Input orientation:                          
 ---------------------------------------------------------------------
 Center     Atomic      Atomic             Coordinates (Angstroms)
 Number     Number       Type             X           Y           Z
 ---------------------------------------------------------------------
      1          7           0       -0.351467   -0.978987   -0.012273
      2          7           0       -0.392727    0.356646    0.000356
      3          6           0       -1.677169    0.769131    0.010492
      4          6           0       -2.415041   -0.391338    0.004055
      5          7           0       -1.559747   -1.444612   -0.009768
      6          1           0       -1.944691    1.813593    0.019952
      7          1           0       -3.484534   -0.527535    0.007819
      8          1           0        2.263196   -0.912147    0.259865
      9          6           0        0.829228    1.221791   -0.000988
     10          8           0        0.572984    2.423357    0.019673
     11          8           0        1.914485    0.611326   -0.023757
     12          1           0        0.873077   -1.720159    0.260085
     13          8           0        1.944682   -1.928724    0.398554
     14          1           0        2.269740   -2.494326   -0.323846
 ---------------------------------------------------------------------
                    Distance matrix (angstroms):
                    1          2          3          4          5
     1  N    0.000000
     2  N    1.336330   0.000000
     3  C    2.194065   1.349088   0.000000
     4  C    2.145678   2.156211   1.375204   0.000000
     5  N    1.294895   2.146292   2.216948   1.356873   0.000000
     6  H    3.215261   2.128772   1.078220   2.254596   3.281001
     7  H    3.165489   3.215758   2.224392   1.078137   2.132169
     8  H    2.629636   2.954844   4.291312   4.714083   3.869252
     9  C    2.497517   1.497215   2.546971   3.623188   3.580082
    10  O    3.525844   2.281286   2.792801   4.105002   4.417080
    11  O    2.768351   2.321351   3.595282   4.444199   4.036999
    12  H    1.457060   2.445984   3.572481   3.555705   2.463205
    13  O    2.518547   3.293169   4.532860   4.639652   3.561196
    14  H    3.043691   3.914317   5.132253   5.145605   3.983154
                    6          7          8          9         10
     6  H    0.000000
     7  H    2.802168   0.000000
     8  H    5.019315   5.766095   0.000000
     9  C    2.836423   4.654972   2.584182   0.000000
    10  O    2.590463   5.017106   3.747011   1.228759   0.000000
    11  O    4.042350   5.517917   1.588398   1.245379   2.254987
    12  H    4.526023   4.524905   1.607891   2.953837   4.161319
    13  O    5.410684   5.620711   1.074298   3.365950   4.578834
    14  H    6.036372   6.090150   1.686432   3.998604   5.213501
                   11         12         13         14
    11  O    0.000000
    12  H    2.569225   0.000000
    13  O    2.575095   1.100459   0.000000
    14  H    3.140276   1.700287   0.973360   0.000000
 Stoichiometry    C3H5N3O3
 Framework group  C1[X(C3H5N3O3)]
 Deg. of freedom    36
 Full point group                 C1      NOp   1
 Largest Abelian subgroup         C1      NOp   1
 Largest concise Abelian subgroup C1      NOp   1
                         Standard orientation:                         
 ---------------------------------------------------------------------
 Center     Atomic      Atomic             Coordinates (Angstroms)
 Number     Number       Type             X           Y           Z
 ---------------------------------------------------------------------
      1          7           0        0.364953   -0.972307    0.090624
      2          7           0        0.384537    0.361944    0.018733
      3          6           0        1.661088    0.791908   -0.056006
      4          6           0        2.417039   -0.356499   -0.026247
      5          7           0        1.579607   -1.420275    0.064266
      6          1           0        1.911494    1.838670   -0.120377
      7          1           0        3.487740   -0.477427   -0.063060
      8          1           0       -2.258499   -0.954836   -0.088753
      9          6           0       -0.850162    1.208760    0.027147
     10          8           0       -0.613919    2.411808   -0.054793
     11          8           0       -1.924087    0.584427    0.115809
     12          1           0       -0.856632   -1.742128   -0.104641
     13          8           0       -1.929059   -1.971856   -0.194842
     14          1           0       -2.219060   -2.509859    0.562708
 ---------------------------------------------------------------------
 Rotational constants (GHZ):           2.0721909           1.6527474           0.9242843
 Standard basis: 6-31+G(d,p) (6D, 7F)
 There are   196 symmetry adapted cartesian basis functions of A   symmetry.
 There are   196 symmetry adapted basis functions of A   symmetry.
   196 basis functions,   323 primitive gaussians,   196 cartesian basis functions
    34 alpha electrons       34 beta electrons
       nuclear repulsion energy       459.7928128977 Hartrees.
 NAtoms=   14 NActive=   14 NUniq=   14 SFac= 1.00D+00 NAtFMM=   60 NAOKFM=F Big=F
 Integral buffers will be    131072 words long.
 Raffenetti 2 integral format.
 Two-electron integral symmetry is turned on.
 Force inversion solution in PCM.
 ------------------------------------------------------------------------------
 Polarizable Continuum Model (PCM)
 =================================
 Model                : PCM.
 Atomic radii         : SMD-Coulomb.
 Polarization charges : Total charges.
 Charge compensation  : None.
 Solution method      : Matrix inversion.
 Cavity type          : VdW (van der Waals Surface) (Alpha=1.000).
 Cavity algorithm     : GePol (No added spheres)
                        Default sphere list used, NSphG=   14.
                        Lebedev-Laikov grids with approx.  5.0 points / Ang**2.
                        Smoothing algorithm: York/Karplus (Gamma=1.0000).
                        Polarization charges: spherical gaussians, with
                                              point-specific exponents (IZeta= 3).
                        Self-potential: point-specific (ISelfS= 7).
                        Self-field    : sphere-specific E.n sum rule (ISelfD= 2).
 1st derivatives      : Analytical E(r).r(x)/FMM algorithm (CHGder, D1EAlg=3).
                        Cavity 1st derivative terms included.
 2nd derivatives      : Analytical E(r).r(xy)/FMM algorithm (CHGder, D2EAlg=3).
                        Cavity 2nd derivative terms included.
 Solvent              : Water, Eps=  78.355300 Eps(inf)=   1.777849
 ------------------------------------------------------------------------------
 Spheres list:
 ISph  on   Nord     Re0    Alpha      Xe            Ye            Ze
    1   N      1    1.8900  1.000      0.364953     -0.972307      0.090624
    2   N      2    1.8900  1.000      0.384537      0.361944      0.018733
    3   C      3    1.8500  1.000      1.661088      0.791908     -0.056006
    4   C      4    1.8500  1.000      2.417039     -0.356499     -0.026247
    5   N      5    1.8900  1.000      1.579607     -1.420275      0.064266
    6   H      6    1.2000  1.000      1.911494      1.838670     -0.120377
    7   H      7    1.2000  1.000      3.487740     -0.477427     -0.063060
    8   H      8    1.2000  1.000     -2.258499     -0.954836     -0.088753
    9   C      9    1.8500  1.000     -0.850162      1.208760      0.027147
   10   O     10    1.5200  1.000     -0.613919      2.411808     -0.054793
   11   O     11    1.5200  1.000     -1.924087      0.584427      0.115809
   12   H     12    1.2000  1.000     -0.856632     -1.742128     -0.104641
   13   O     13    1.5200  1.000     -1.929059     -1.971856     -0.194842
   14   H     14    1.2000  1.000     -2.219060     -2.509859      0.562708
 ------------------------------------------------------------------------------
 ------------------------------------------------------------------------------
 Atomic radii for non-electrostatic terms: SMD-CDS.
 ------------------------------------------------------------------------------
 Nuclear repulsion after PCM non-electrostatic terms =      459.8005249562 Hartrees.
 One-electron integrals computed using PRISM.
 NBasis=   196 RedAO= T EigKep=  1.92D-05  NBF=   196
 NBsUse=   196 1.00D-06 EigRej= -1.00D+00 NBFU=   196
 ExpMin= 4.38D-02 ExpMax= 5.48D+03 ExpMxC= 8.25D+02 IAcc=3 IRadAn=         5 AccDes= 0.00D+00
 Harris functional with IExCor= 1009 and IRadAn=       5 diagonalized for initial guess.
 HarFok:  IExCor= 1009 AccDes= 0.00D+00 IRadAn=         5 IDoV= 1 UseB2=F ITyADJ=14
 ICtDFT=  3500011 ScaDFX=  1.000000  1.000000  1.000000  1.000000
 FoFCou: FMM=F IPFlag=           0 FMFlag=      100000 FMFlg1=           0
         NFxFlg=           0 DoJE=T BraDBF=F KetDBF=T FulRan=T
         wScrn=  0.000000 ICntrl=       500 IOpCl=  0 I1Cent=   200000004 NGrid=           0
         NMat0=    1 NMatS0=      1 NMatT0=    0 NMatD0=    1 NMtDS0=    0 NMtDT0=    0
 Petite list used in FoFCou.
 Requested convergence on RMS density matrix=1.00D-08 within 128 cycles.
 Requested convergence on MAX density matrix=1.00D-06.
 Requested convergence on             energy=1.00D-06.
 No special actions if energy rises.
 Inv3:  Mode=1 IEnd=     3885132.
 Iteration    1 A*A^-1 deviation from unit magnitude is 4.55D-15 for   1131.
 Iteration    1 A*A^-1 deviation from orthogonality  is 1.53D-15 for   1121    268.
 Iteration    1 A^-1*A deviation from unit magnitude is 4.55D-15 for   1131.
 Iteration    1 A^-1*A deviation from orthogonality  is 1.23D-15 for    233     90.
 Error on total polarization charges =  0.04169
 SCF Done:  E(RM062X) =  -507.078264071     A.U. after   14 cycles
            NFock= 14  Conv=0.46D-08     -V/T= 2.0086
 SMD-CDS (non-electrostatic) energy       (kcal/mol) =       4.84
 (included in total energy above)
 DoSCS=F DFT=T ScalE2(SS,OS)=  1.000000  1.000000
 Range of M.O.s used for correlation:     1   196
 NBasis=   196 NAE=    34 NBE=    34 NFC=     0 NFV=     0
 NROrb=    196 NOA=    34 NOB=    34 NVA=   162 NVB=   162

 **** Warning!!: The largest alpha MO coefficient is  0.54869945D+02

 Symmetrizing basis deriv contribution to polar:
 IMax=3 JMax=2 DiffMx= 0.00D+00
 G2DrvN: will do    15 centers at a time, making    1 passes.
 Calling FoFCou, ICntrl=  3107 FMM=F I1Cent=   0 AccDes= 0.00D+00.
 NEqPCM:  Using equilibrium solvation (IEInf=0, Eps=  78.3553, EpsInf=   1.7778)
 G2PCM: DoFxE=T DoFxN=T DoGrad=T DoDP/DQ/DG/TGxP=FFFF NFrqRd=   0 IEInf=0 SqF1=F DoCFld=F IF1Alg=4.
 End of G2Drv F.D. properties file   721 does not exist.
 End of G2Drv F.D. properties file   722 does not exist.
 End of G2Drv F.D. properties file   788 does not exist.
          IDoAtm=11111111111111
 NEqPCM:  Using equilibrium solvation (IEInf=0, Eps=  78.3553, EpsInf=   1.7778)
          Differentiating once with respect to nuclear coordinates.
 Keep R1 ints in memory in canonical form, NReq=235503722.
          There are    45 degrees of freedom in the 1st order CPHF.  IDoFFX=6 NUNeed=     0.
     39 vectors produced by pass  0 Test12= 1.22D-14 2.22D-09 XBig12= 1.25D-01 8.11D-02.
 AX will form    39 AO Fock derivatives at one time.
     39 vectors produced by pass  1 Test12= 1.22D-14 2.22D-09 XBig12= 1.58D-02 3.73D-02.
     39 vectors produced by pass  2 Test12= 1.22D-14 2.22D-09 XBig12= 2.98D-04 2.81D-03.
     39 vectors produced by pass  3 Test12= 1.22D-14 2.22D-09 XBig12= 3.06D-06 2.84D-04.
     39 vectors produced by pass  4 Test12= 1.22D-14 2.22D-09 XBig12= 2.38D-08 2.09D-05.
     39 vectors produced by pass  5 Test12= 1.22D-14 2.22D-09 XBig12= 1.49D-10 1.75D-06.
     34 vectors produced by pass  6 Test12= 1.22D-14 2.22D-09 XBig12= 7.33D-13 9.10D-08.
      8 vectors produced by pass  7 Test12= 1.22D-14 2.22D-09 XBig12= 2.90D-15 5.08D-09.
 InvSVY:  IOpt=1 It=  1 EMax= 1.78D-15
 Solved reduced A of dimension   276 with    39 vectors.
 End of Minotr F.D. properties file   721 does not exist.
 End of Minotr F.D. properties file   722 does not exist.
 End of Minotr F.D. properties file   788 does not exist.

 **********************************************************************

            Population analysis using the SCF Density.

 **********************************************************************

 Orbital symmetries:
       Occupied  (A) (A) (A) (A) (A) (A) (A) (A) (A) (A) (A) (A)
                 (A) (A) (A) (A) (A) (A) (A) (A) (A) (A) (A) (A)
                 (A) (A) (A) (A) (A) (A) (A) (A) (A) (A)
       Virtual   (A) (A) (A) (A) (A) (A) (A) (A) (A) (A) (A) (A)
                 (A) (A) (A) (A) (A) (A) (A) (A) (A) (A) (A) (A)
                 (A) (A) (A) (A) (A) (A) (A) (A) (A) (A) (A) (A)
                 (A) (A) (A) (A) (A) (A) (A) (A) (A) (A) (A) (A)
                 (A) (A) (A) (A) (A) (A) (A) (A) (A) (A) (A) (A)
                 (A) (A) (A) (A) (A) (A) (A) (A) (A) (A) (A) (A)
                 (A) (A) (A) (A) (A) (A) (A) (A) (A) (A) (A) (A)
                 (A) (A) (A) (A) (A) (A) (A) (A) (A) (A) (A) (A)
                 (A) (A) (A) (A) (A) (A) (A) (A) (A) (A) (A) (A)
                 (A) (A) (A) (A) (A) (A) (A) (A) (A) (A) (A) (A)
                 (A) (A) (A) (A) (A) (A) (A) (A) (A) (A) (A) (A)
                 (A) (A) (A) (A) (A) (A) (A) (A) (A) (A) (A) (A)
                 (A) (A) (A) (A) (A) (A) (A) (A) (A) (A) (A) (A)
                 (A) (A) (A) (A) (A) (A)
 The electronic state is 1-A.
 Alpha  occ. eigenvalues --  -19.71509 -19.65077 -19.64017 -14.87913 -14.86624
 Alpha  occ. eigenvalues --  -14.82270 -10.72810 -10.61149 -10.59009  -1.26296
 Alpha  occ. eigenvalues --   -1.21496  -1.20053  -1.12887  -1.03647  -0.93215
 Alpha  occ. eigenvalues --   -0.77325  -0.73701  -0.69635  -0.67234  -0.62010
 Alpha  occ. eigenvalues --   -0.59497  -0.59323  -0.55265  -0.54347  -0.52590
 Alpha  occ. eigenvalues --   -0.52365  -0.50460  -0.44413  -0.40368  -0.38887
 Alpha  occ. eigenvalues --   -0.38575  -0.37516  -0.36766  -0.34289
 Alpha virt. eigenvalues --   -0.01546   0.01988   0.03763   0.04523   0.04793
 Alpha virt. eigenvalues --    0.05692   0.05946   0.06582   0.07709   0.09389
 Alpha virt. eigenvalues --    0.10149   0.10639   0.11885   0.12863   0.13399
 Alpha virt. eigenvalues --    0.15695   0.16014   0.16448   0.18815   0.19411
 Alpha virt. eigenvalues --    0.20557   0.21305   0.21499   0.22425   0.23016
 Alpha virt. eigenvalues --    0.23785   0.24730   0.25065   0.25516   0.25961
 Alpha virt. eigenvalues --    0.26569   0.27938   0.28425   0.28617   0.29710
 Alpha virt. eigenvalues --    0.30138   0.31906   0.32511   0.33062   0.34407
 Alpha virt. eigenvalues --    0.34905   0.36463   0.37492   0.39148   0.41635
 Alpha virt. eigenvalues --    0.43922   0.45260   0.47052   0.49824   0.50770
 Alpha virt. eigenvalues --    0.52320   0.65971   0.71934   0.73194   0.75853
 Alpha virt. eigenvalues --    0.79712   0.81627   0.86023   0.89037   0.89696
 Alpha virt. eigenvalues --    0.92631   0.93103   0.94251   0.96640   0.97024
 Alpha virt. eigenvalues --    0.99112   1.00331   1.03439   1.03955   1.05366
 Alpha virt. eigenvalues --    1.10493   1.13515   1.15153   1.17925   1.20168
 Alpha virt. eigenvalues --    1.24314   1.24808   1.25294   1.27617   1.28986
 Alpha virt. eigenvalues --    1.29706   1.32019   1.34553   1.35048   1.36410
 Alpha virt. eigenvalues --    1.37628   1.39702   1.40777   1.41608   1.43228
 Alpha virt. eigenvalues --    1.47058   1.48398   1.50214   1.52132   1.54677
 Alpha virt. eigenvalues --    1.55570   1.58473   1.62474   1.63835   1.67272
 Alpha virt. eigenvalues --    1.76029   1.76852   1.81559   1.84069   1.87371
 Alpha virt. eigenvalues --    1.91969   1.92958   1.96741   1.99394   1.99871
 Alpha virt. eigenvalues --    2.03701   2.07596   2.10549   2.16617   2.17709
 Alpha virt. eigenvalues --    2.19686   2.21902   2.23112   2.25095   2.30553
 Alpha virt. eigenvalues --    2.31856   2.36589   2.38572   2.39582   2.43415
 Alpha virt. eigenvalues --    2.45123   2.47504   2.54275   2.55189   2.58224
 Alpha virt. eigenvalues --    2.60044   2.61862   2.62578   2.73487   2.73963
 Alpha virt. eigenvalues --    2.78672   2.81248   2.86135   2.90713   2.93457
 Alpha virt. eigenvalues --    2.94116   2.95610   3.06402   3.07863   3.12591
 Alpha virt. eigenvalues --    3.14417   3.23958   3.26769   3.33953   3.37831
 Alpha virt. eigenvalues --    3.59552   3.67551   3.75684   4.04326   4.20719
 Alpha virt. eigenvalues --    4.24738   4.28043   4.37020   4.49342   4.55652
 Alpha virt. eigenvalues --    4.71984   4.73363
          Condensed to atoms (all electrons):
               1          2          3          4          5          6
     1  N    8.043851  -0.351016  -0.387116   0.379869  -0.532867  -0.000081
     2  N   -0.351016   7.277184   0.348004  -0.191295   0.267146  -0.039391
     3  C   -0.387116   0.348004   5.701014  -0.081944   0.164529   0.413470
     4  C    0.379869  -0.191295  -0.081944   5.716770   0.058122  -0.027688
     5  N   -0.532867   0.267146   0.164529   0.058122   7.276162   0.000627
     6  H   -0.000081  -0.039391   0.413470  -0.027688   0.000627   0.396346
     7  H    0.031091  -0.021404  -0.010244   0.389526  -0.055674   0.000363
     8  H    0.006096  -0.005524   0.000352  -0.000145   0.005197   0.000000
     9  C   -0.016001   0.083464  -0.099754  -0.021401   0.033692  -0.009901
    10  O    0.022627  -0.109129  -0.080267   0.060089  -0.012163  -0.000794
    11  O   -0.024077  -0.094470   0.030877  -0.004256   0.009919  -0.000457
    12  H    0.073611   0.015874   0.010567  -0.004825   0.010202  -0.000008
    13  O   -0.035188  -0.014300   0.000808  -0.001514  -0.036537   0.000025
    14  H   -0.000522   0.001002  -0.000012  -0.000247   0.001603  -0.000000
               7          8          9         10         11         12
     1  N    0.031091   0.006096  -0.016001   0.022627  -0.024077   0.073611
     2  N   -0.021404  -0.005524   0.083464  -0.109129  -0.094470   0.015874
     3  C   -0.010244   0.000352  -0.099754  -0.080267   0.030877   0.010567
     4  C    0.389526  -0.000145  -0.021401   0.060089  -0.004256  -0.004825
     5  N   -0.055674   0.005197   0.033692  -0.012163   0.009919   0.010202
     6  H    0.000363   0.000000  -0.009901  -0.000794  -0.000457  -0.000008
     7  H    0.430606  -0.000000  -0.001025  -0.000185   0.000014  -0.000005
     8  H   -0.000000   0.208737  -0.004366   0.000902   0.061139  -0.007439
     9  C   -0.001025  -0.004366   4.382791   0.483251   0.336556  -0.005100
    10  O   -0.000185   0.000902   0.483251   8.385019  -0.125424   0.000219
    11  O    0.000014   0.061139   0.336556  -0.125424   8.566349   0.001274
    12  H   -0.000005  -0.007439  -0.005100   0.000219   0.001274   0.220301
    13  O    0.000035   0.211699  -0.005798  -0.001996  -0.048676   0.154468
    14  H   -0.000000  -0.011690   0.000776  -0.000001   0.000480  -0.008797
              13         14
     1  N   -0.035188  -0.000522
     2  N   -0.014300   0.001002
     3  C    0.000808  -0.000012
     4  C   -0.001514  -0.000247
     5  N   -0.036537   0.001603
     6  H    0.000025  -0.000000
     7  H    0.000035  -0.000000
     8  H    0.211699  -0.011690
     9  C   -0.005798   0.000776
    10  O   -0.001996  -0.000001
    11  O   -0.048676   0.000480
    12  H    0.154468  -0.008797
    13  O    8.222207   0.290081
    14  H    0.290081   0.234793
 Mulliken charges:
               1
     1  N   -0.210277
     2  N   -0.166147
     3  C   -0.010284
     4  C   -0.271064
     5  N   -0.189958
     6  H    0.267490
     7  H    0.236901
     8  H    0.535041
     9  C    0.842817
    10  O   -0.622149
    11  O   -0.709248
    12  H    0.539658
    13  O   -0.735314
    14  H    0.492533
 Sum of Mulliken charges =  -0.00000
 Mulliken charges with hydrogens summed into heavy atoms:
               1
     1  N   -0.210277
     2  N   -0.166147
     3  C    0.257206
     4  C   -0.034163
     5  N   -0.189958
     9  C    0.842817
    10  O   -0.622149
    11  O   -0.709248
    13  O    0.831918
 APT charges:
               1
     1  N   -0.579490
     2  N   -0.379080
     3  C   -0.380402
     4  C   -0.539969
     5  N    0.109484
     6  H    0.648614
     7  H    0.850177
     8  H    0.421605
     9  C    0.273330
    10  O   -0.311506
    11  O   -0.519832
    12  H    0.346423
    13  O   -0.851161
    14  H    0.911806
 Sum of APT charges =  -0.00000
 APT charges with hydrogens summed into heavy atoms:
               1
     1  N   -0.579490
     2  N   -0.379080
     3  C    0.268212
     4  C    0.310208
     5  N    0.109484
     9  C    0.273330
    10  O   -0.311506
    11  O   -0.519832
    13  O    0.828673
 Electronic spatial extent (au):  <R**2>=           1166.6424
 Charge=             -0.0000 electrons
 Dipole moment (field-independent basis, Debye):
    X=              1.6515    Y=             -6.3743    Z=              1.1619  Tot=              6.6865
 Quadrupole moment (field-independent basis, Debye-Ang):
   XX=            -42.9561   YY=            -59.6459   ZZ=            -52.3325
   XY=             19.3021   XZ=             -3.7427   YZ=             -3.9362
 Traceless Quadrupole moment (field-independent basis, Debye-Ang):
   XX=              8.6887   YY=             -8.0010   ZZ=             -0.6877
   XY=             19.3021   XZ=             -3.7427   YZ=             -3.9362
 Octapole moment (field-independent basis, Debye-Ang**2):
  XXX=              8.9837  YYY=            -53.9133  ZZZ=              1.1344  XYY=            -15.3890
  XXY=            -20.8873  XXZ=              6.0016  XZZ=             -8.7259  YZZ=             -2.6505
  YYZ=             11.5979  XYZ=             10.2088
 Hexadecapole moment (field-independent basis, Debye-Ang**3):
 XXXX=           -655.2174 YYYY=           -669.1491 ZZZZ=            -53.5096 XXXY=             86.4914
 XXXZ=            -22.0836 YYYX=            127.5741 YYYZ=            -27.6498 ZZZX=             -2.3970
 ZZZY=             -2.7507 XXYY=           -207.1372 XXZZ=           -145.8293 YYZZ=           -110.2336
 XXYZ=            -24.2524 YYXZ=            -28.8461 ZZXY=              9.3218
 N-N= 4.598005249562D+02 E-N=-2.105700534969D+03  KE= 5.027450246331D+02
  Exact polarizability:       0.000       0.000       0.000       0.000       0.000       0.000
 Approx polarizability:      96.834       4.904     102.319      -2.053      -2.985      51.517
 D2PCM: PCM CHGder 2nd derivatives, FixD1E=F FixD2E=F DoIter=F DoCFld=F I1PDM=0
 Calling FoFJK, ICntrl=    100127 FMM=F ISym2X=0 I1Cent= 0 IOpClX= 0 NMat=1 NMatS=1 NMatT=0.
 ***** Axes restored to original set *****
 -------------------------------------------------------------------
 Center     Atomic                   Forces (Hartrees/Bohr)
 Number     Number              X              Y              Z
 -------------------------------------------------------------------
      1        7          -0.000831110   -0.000968228    0.002920164
      2        7           0.000847988    0.000620091    0.000563778
      3        6           0.000400526    0.000024002   -0.000325800
      4        6           0.000129969   -0.000600349   -0.000934193
      5        7          -0.000720239    0.000375321    0.001163383
      6        1          -0.000035816    0.000065911   -0.000202889
      7        1           0.000007250    0.000010723   -0.000169865
      8        1          -0.013938495   -0.029521894   -0.000500273
      9        6          -0.005005607    0.002159819    0.001233526
     10        8           0.001484038   -0.002399088   -0.000688425
     11        8           0.005465720   -0.004913795    0.001443670
     12        1           0.011669730    0.000028157   -0.004796154
     13        8          -0.000250048    0.032425029    0.000708279
     14        1           0.000776094    0.002694301   -0.000415204
 -------------------------------------------------------------------
 Cartesian Forces:  Max     0.032425029 RMS     0.007553307
 FormGI is forming the generalized inverse of G from B-inverse, IUseBI=4.

 GradGradGradGradGradGradGradGradGradGradGradGradGradGradGradGradGradGrad
 Berny optimization.
 Internal  Forces:  Max     0.034557420 RMS     0.004677005
 Search for a saddle point.
 Step number   1 out of a maximum of   76
 All quantities printed in internal units (Hartrees-Bohrs-Radians)
 Swapping is turned off.
 Second derivative matrix not updated -- analytic derivatives used.
 ITU=  0
     Eigenvalues ---   -0.01772   0.00098   0.00124   0.00298   0.00373
     Eigenvalues ---    0.00715   0.01072   0.01406   0.02597   0.03319
     Eigenvalues ---    0.04616   0.04889   0.06207   0.07068   0.07422
     Eigenvalues ---    0.07525   0.09720   0.09853   0.10682   0.13154
     Eigenvalues ---    0.19749   0.22111   0.24675   0.25537   0.26847
     Eigenvalues ---    0.33787   0.36703   0.39081   0.39146   0.43526
     Eigenvalues ---    0.46025   0.50301   0.51678   0.58575   0.60451
     Eigenvalues ---    0.84485
 Eigenvectors required to have negative eigenvalues:
                          R10       A14       R3        R11       A19
   1                   -0.78389   0.35732   0.32102   0.21238  -0.20487
                          R14       A18       A20       A17       R5
   1                   -0.18258  -0.09264  -0.07204  -0.05767  -0.05000
 RFO step:  Lambda0=3.014239245D-05 Lambda=-6.53373018D-03.
 Linear search not attempted -- option 19 set.
 Iteration  1 RMS(Cart)=  0.03260839 RMS(Int)=  0.00210610
 Iteration  2 RMS(Cart)=  0.00095254 RMS(Int)=  0.00029829
 Iteration  3 RMS(Cart)=  0.00000866 RMS(Int)=  0.00029817
 Iteration  4 RMS(Cart)=  0.00000000 RMS(Int)=  0.00029817
 Variable       Old X    -DE/DX   Delta X   Delta X   Delta X     New X
                                 (Linear)    (Quad)   (Total)
    R1        2.52530  -0.00179   0.00000   0.00235   0.00227   2.52757
    R2        2.44700   0.00028   0.00000  -0.00006   0.00002   2.44701
    R3        2.75344  -0.00081   0.00000   0.11917   0.11898   2.87243
    R4        2.54941  -0.00044   0.00000   0.00163   0.00161   2.55101
    R5        2.82933  -0.00179   0.00000  -0.00689  -0.00690   2.82243
    R6        2.59876   0.00066   0.00000  -0.00128  -0.00137   2.59739
    R7        2.03754   0.00007   0.00000   0.00004   0.00004   2.03758
    R8        2.56412  -0.00008   0.00000   0.00164   0.00161   2.56573
    R9        2.03738  -0.00001   0.00000   0.00005   0.00005   2.03743
   R10        3.00164  -0.00417   0.00000   0.00915   0.00934   3.01098
   R11        2.03013  -0.03456   0.00000  -0.13770  -0.13757   1.89256
   R12        2.32202  -0.00266   0.00000  -0.00083  -0.00083   2.32119
   R13        2.35343   0.00302   0.00000   0.00458   0.00474   2.35816
   R14        2.07957  -0.01049   0.00000  -0.09435  -0.09449   1.98507
   R15        1.83938  -0.00100   0.00000   0.00065   0.00065   1.84003
    A1        1.90770   0.00047   0.00000  -0.00366  -0.00390   1.90380
    A2        2.13246  -0.00295   0.00000  -0.01258  -0.01371   2.11875
    A3        2.21546   0.00262   0.00000   0.02969   0.02947   2.24494
    A4        1.91246   0.00055   0.00000   0.00229   0.00249   1.91495
    A5        2.15595  -0.00321   0.00000  -0.00134  -0.00167   2.15428
    A6        2.21477   0.00266   0.00000  -0.00099  -0.00091   2.21386
    A7        1.82637  -0.00049   0.00000  -0.00096  -0.00101   1.82536
    A8        2.13231   0.00027   0.00000   0.00110   0.00113   2.13344
    A9        2.32450   0.00022   0.00000  -0.00015  -0.00012   2.32438
   A10        1.89323   0.00005   0.00000  -0.00028  -0.00033   1.89290
   A11        2.26378  -0.00002   0.00000   0.00005   0.00007   2.26386
   A12        2.12617  -0.00002   0.00000   0.00023   0.00025   2.12643
   A13        1.88501  -0.00058   0.00000   0.00260   0.00275   1.88776
   A14        2.61705   0.00529   0.00000   0.04633   0.04640   2.66346
   A15        1.97668   0.00184   0.00000   0.00406   0.00402   1.98070
   A16        2.01306  -0.00147   0.00000   0.00232   0.00239   2.01545
   A17        2.29344  -0.00037   0.00000  -0.00639  -0.00643   2.28701
   A18        2.28921  -0.00082   0.00000  -0.00905  -0.00898   2.28023
   A19        2.78851   0.00172   0.00000  -0.01838  -0.01889   2.76962
   A20        1.66406   0.00146   0.00000   0.01023   0.01000   1.67406
   A21        1.93375  -0.00332   0.00000  -0.02699  -0.02689   1.90686
   A22        1.91978  -0.00011   0.00000  -0.00198  -0.00217   1.91761
    D1       -0.00075  -0.00040   0.00000  -0.00321  -0.00337  -0.00412
    D2       -3.13961  -0.00001   0.00000   0.00835   0.00815  -3.13146
    D3       -2.90818  -0.00144   0.00000  -0.06376  -0.06348  -2.97166
    D4        0.23614  -0.00105   0.00000  -0.05220  -0.05196   0.18418
    D5        0.00061   0.00053   0.00000   0.00391   0.00392   0.00453
    D6        2.89397   0.00066   0.00000   0.06058   0.06180   2.95576
    D7       -0.27791   0.00120   0.00000   0.09544   0.09582  -0.18209
    D8        3.14120   0.00047   0.00000   0.02985   0.02935  -3.11264
    D9        0.00056   0.00010   0.00000   0.00114   0.00138   0.00194
   D10       -3.13987   0.00029   0.00000   0.00375   0.00380  -3.13607
   D11        3.13931  -0.00031   0.00000  -0.01091  -0.01063   3.12868
   D12       -0.00112  -0.00012   0.00000  -0.00830  -0.00822  -0.00934
   D13       -3.13484  -0.00055   0.00000   0.00011  -0.00012  -3.13496
   D14        0.00787  -0.00004   0.00000   0.00562   0.00516   0.01303
   D15        0.00997  -0.00009   0.00000   0.01373   0.01343   0.02339
   D16       -3.13051   0.00042   0.00000   0.01924   0.01870  -3.11180
   D17       -0.00019   0.00021   0.00000   0.00121   0.00098   0.00079
   D18       -3.14103   0.00007   0.00000   0.00072   0.00062  -3.14041
   D19        3.14006  -0.00001   0.00000  -0.00181  -0.00182   3.13824
   D20       -0.00079  -0.00015   0.00000  -0.00231  -0.00218  -0.00297
   D21       -0.00025  -0.00046   0.00000  -0.00319  -0.00306  -0.00331
   D22        3.14066  -0.00033   0.00000  -0.00275  -0.00273   3.13793
   D23        0.23606  -0.00001   0.00000  -0.04891  -0.04843   0.18763
   D24        0.00513   0.00069   0.00000   0.02023   0.02078   0.02590
   D25        1.99059   0.00034   0.00000   0.01543   0.01563   2.00623
   D26       -0.26366   0.00001   0.00000   0.03974   0.03963  -0.22403
   D27        2.87931   0.00063   0.00000   0.04648   0.04604   2.92534
   D28        0.05905  -0.00149   0.00000  -0.05971  -0.05960  -0.00055
   D29       -1.93803   0.00154   0.00000  -0.03407  -0.03393  -1.97196
         Item               Value     Threshold  Converged?
 Maximum Force            0.034557     0.000450     NO 
 RMS     Force            0.004677     0.000300     NO 
 Maximum Displacement     0.107327     0.001800     NO 
 RMS     Displacement     0.032700     0.001200     NO 
 Predicted change in Energy=-3.506360D-03
 GradGradGradGradGradGradGradGradGradGradGradGradGradGradGradGradGradGrad

                          Input orientation:                          
 ---------------------------------------------------------------------
 Center     Atomic      Atomic             Coordinates (Angstroms)
 Number     Number       Type             X           Y           Z
 ---------------------------------------------------------------------
      1          7           0       -0.366150   -0.985570    0.026690
      2          7           0       -0.400316    0.351499    0.018484
      3          6           0       -1.682232    0.774267    0.001428
      4          6           0       -2.427586   -0.380568    0.002282
      5          7           0       -1.578675   -1.440018    0.020592
      6          1           0       -1.942685    1.820481   -0.012685
      7          1           0       -3.497939   -0.509593   -0.009230
      8          1           0        2.231464   -0.949958    0.254087
      9          6           0        0.824708    1.205883    0.009667
     10          8           0        0.581771    2.409938    0.010358
     11          8           0        1.909334    0.588942   -0.004289
     12          1           0        0.929872   -1.743105    0.265305
     13          8           0        1.960884   -1.905396    0.384199
     14          1           0        2.299566   -2.438785   -0.356669
 ---------------------------------------------------------------------
                    Distance matrix (angstroms):
                    1          2          3          4          5
     1  N    0.000000
     2  N    1.337531   0.000000
     3  C    2.197665   1.349938   0.000000
     4  C    2.148520   2.155461   1.374481   0.000000
     5  N    1.294904   2.144311   2.216788   1.357726   0.000000
     6  H    3.218840   2.130207   1.078239   2.253878   3.280924
     7  H    3.167956   3.215202   2.223782   1.078163   2.133110
     8  H    2.607792   2.945431   4.284133   4.700463   3.848614
     9  C    2.494173   1.493564   2.543837   3.618605   3.574516
    10  O    3.525378   2.280730   2.793064   4.104049   4.414725
    11  O    2.767287   2.321934   3.596348   4.443969   4.035282
    12  H    1.520024   2.493529   3.637290   3.632935   2.538612
    13  O    2.527643   3.286728   4.538655   4.661505   3.588490
    14  H    3.060203   3.900741   5.129000   5.168275   4.022513
                    6          7          8          9         10
     6  H    0.000000
     7  H    2.801441   0.000000
     8  H    5.016973   5.752331   0.000000
     9  C    2.834907   4.650645   2.585798   0.000000
    10  O    2.592465   5.016780   3.750971   1.228319   0.000000
    11  O    4.044108   5.517735   1.593342   1.247887   2.253588
    12  H    4.585631   4.604610   1.524254   2.961915   4.175397
    13  O    5.410871   5.648168   1.001501   3.333350   4.545746
    14  H    6.021326   6.119931   1.610673   3.948798   5.157096
                   11         12         13         14
    11  O    0.000000
    12  H    2.543712   0.000000
    13  O    2.524936   1.050456   0.000000
    14  H    3.073041   1.657372   0.973701   0.000000
 Stoichiometry    C3H5N3O3
 Framework group  C1[X(C3H5N3O3)]
 Deg. of freedom    36
 Full point group                 C1      NOp   1
 Largest Abelian subgroup         C1      NOp   1
 Largest concise Abelian subgroup C1      NOp   1
                         Standard orientation:                         
 ---------------------------------------------------------------------
 Center     Atomic      Atomic             Coordinates (Angstroms)
 Number     Number       Type             X           Y           Z
 ---------------------------------------------------------------------
      1          7           0        0.363982   -0.982283    0.061997
      2          7           0        0.392647    0.353831    0.007535
      3          6           0        1.672549    0.780407   -0.039544
      4          6           0        2.422397   -0.371216   -0.013286
      5          7           0        1.577936   -1.432681    0.046720
      6          1           0        1.928822    1.826861   -0.082624
      7          1           0        3.493051   -0.496673   -0.033162
      8          1           0       -2.240086   -0.964228   -0.076135
      9          6           0       -0.835006    1.204390    0.019754
     10          8           0       -0.597433    2.407787   -0.044751
     11          8           0       -1.915825    0.585812    0.099844
     12          1           0       -0.936259   -1.753520   -0.096233
     13          8           0       -1.970065   -1.923911   -0.171539
     14          1           0       -2.280542   -2.423502    0.604417
 ---------------------------------------------------------------------
 Rotational constants (GHZ):           2.1008851           1.6410000           0.9252171
 Standard basis: 6-31+G(d,p) (6D, 7F)
 There are   196 symmetry adapted cartesian basis functions of A   symmetry.
 There are   196 symmetry adapted basis functions of A   symmetry.
   196 basis functions,   323 primitive gaussians,   196 cartesian basis functions
    34 alpha electrons       34 beta electrons
       nuclear repulsion energy       460.4176065893 Hartrees.
 NAtoms=   14 NActive=   14 NUniq=   14 SFac= 1.00D+00 NAtFMM=   60 NAOKFM=F Big=F
 Integral buffers will be    131072 words long.
 Raffenetti 2 integral format.
 Two-electron integral symmetry is turned on.
 ------------------------------------------------------------------------------
 Polarizable Continuum Model (PCM)
 =================================
 Model                : PCM.
 Atomic radii         : SMD-Coulomb.
 Polarization charges : Total charges.
 Charge compensation  : None.
 Solution method      : Matrix inversion.
 Cavity type          : VdW (van der Waals Surface) (Alpha=1.000).
 Cavity algorithm     : GePol (No added spheres)
                        Default sphere list used, NSphG=   14.
                        Lebedev-Laikov grids with approx.  5.0 points / Ang**2.
                        Smoothing algorithm: York/Karplus (Gamma=1.0000).
                        Polarization charges: spherical gaussians, with
                                              point-specific exponents (IZeta= 3).
                        Self-potential: point-specific (ISelfS= 7).
                        Self-field    : sphere-specific E.n sum rule (ISelfD= 2).
 1st derivatives      : Analytical E(r).r(x)/FMM algorithm (CHGder, D1EAlg=3).
                        Cavity 1st derivative terms included.
 Solvent              : Water, Eps=  78.355300 Eps(inf)=   1.777849
 ------------------------------------------------------------------------------
 Spheres list:
 ISph  on   Nord     Re0    Alpha      Xe            Ye            Ze
    1   N      1    1.8900  1.000      0.363982     -0.982283      0.061997
    2   N      2    1.8900  1.000      0.392647      0.353831      0.007535
    3   C      3    1.8500  1.000      1.672549      0.780407     -0.039544
    4   C      4    1.8500  1.000      2.422397     -0.371216     -0.013286
    5   N      5    1.8900  1.000      1.577936     -1.432681      0.046720
    6   H      6    1.2000  1.000      1.928822      1.826861     -0.082624
    7   H      7    1.2000  1.000      3.493051     -0.496673     -0.033162
    8   H      8    1.2000  1.000     -2.240086     -0.964228     -0.076135
    9   C      9    1.8500  1.000     -0.835006      1.204390      0.019754
   10   O     10    1.5200  1.000     -0.597433      2.407787     -0.044751
   11   O     11    1.5200  1.000     -1.915825      0.585812      0.099844
   12   H     12    1.2000  1.000     -0.936259     -1.753520     -0.096233
   13   O     13    1.5200  1.000     -1.970065     -1.923911     -0.171539
   14   H     14    1.2000  1.000     -2.280542     -2.423502      0.604417
 ------------------------------------------------------------------------------
 ------------------------------------------------------------------------------
 Atomic radii for non-electrostatic terms: SMD-CDS.
 ------------------------------------------------------------------------------
 Nuclear repulsion after PCM non-electrostatic terms =      460.4252594389 Hartrees.
 One-electron integrals computed using PRISM.
 NBasis=   196 RedAO= T EigKep=  1.89D-05  NBF=   196
 NBsUse=   196 1.00D-06 EigRej= -1.00D+00 NBFU=   196
 Initial guess from the checkpoint file:  "/home/gau/soft/scratch/Gau-36183.chk"
 B after Tr=    -0.000000    0.000000   -0.000000
         Rot=    0.999987   -0.000151   -0.000163    0.005091 Ang=  -0.58 deg.
 ExpMin= 4.38D-02 ExpMax= 5.48D+03 ExpMxC= 8.25D+02 IAcc=3 IRadAn=         5 AccDes= 0.00D+00
 Harris functional with IExCor= 1009 and IRadAn=       5 diagonalized for initial guess.
 HarFok:  IExCor= 1009 AccDes= 0.00D+00 IRadAn=         5 IDoV= 1 UseB2=F ITyADJ=14
 ICtDFT=  3500011 ScaDFX=  1.000000  1.000000  1.000000  1.000000
 FoFCou: FMM=F IPFlag=           0 FMFlag=      100000 FMFlg1=           0
         NFxFlg=           0 DoJE=T BraDBF=F KetDBF=T FulRan=T
         wScrn=  0.000000 ICntrl=       500 IOpCl=  0 I1Cent=   200000004 NGrid=           0
         NMat0=    1 NMatS0=      1 NMatT0=    0 NMatD0=    1 NMtDS0=    0 NMtDT0=    0
 Petite list used in FoFCou.
 Requested convergence on RMS density matrix=1.00D-08 within 128 cycles.
 Requested convergence on MAX density matrix=1.00D-06.
 Requested convergence on             energy=1.00D-06.
 No special actions if energy rises.
 Inv3:  Mode=1 IEnd=     3898800.
 Iteration    1 A*A^-1 deviation from unit magnitude is 2.66D-15 for   1113.
 Iteration    1 A*A^-1 deviation from orthogonality  is 2.20D-15 for   1040    968.
 Iteration    1 A^-1*A deviation from unit magnitude is 2.66D-15 for   1113.
 Iteration    1 A^-1*A deviation from orthogonality  is 1.41D-15 for   1039    967.
 Error on total polarization charges =  0.04150
 SCF Done:  E(RM062X) =  -507.081170390     A.U. after   12 cycles
            NFock= 12  Conv=0.85D-08     -V/T= 2.0083
 SMD-CDS (non-electrostatic) energy       (kcal/mol) =       4.80
 (included in total energy above)
 D1PCM: PCM CHGder 1st derivatives, ID1Alg=3 FixD1E=F DoIter=F DoCFld=F I1PDM=0.
 Calling FoFJK, ICntrl=      2127 FMM=F ISym2X=0 I1Cent= 0 IOpClX= 0 NMat=1 NMatS=1 NMatT=0.
 ***** Axes restored to original set *****
 -------------------------------------------------------------------
 Center     Atomic                   Forces (Hartrees/Bohr)
 Number     Number              X              Y              Z
 -------------------------------------------------------------------
      1        7          -0.001088762    0.000603375    0.002293415
      2        7           0.000237872    0.000138049   -0.000142659
      3        6           0.000121853    0.000018645   -0.000258507
      4        6           0.000027663   -0.000132628   -0.000296681
      5        7          -0.000189007    0.000025142    0.000278508
      6        1           0.000022915    0.000006611   -0.000034590
      7        1           0.000001743   -0.000007926   -0.000046424
      8        1           0.002844780    0.008864351   -0.002633377
      9        6          -0.000073201   -0.000004106   -0.000087313
     10        8           0.000016734   -0.000031132   -0.000137863
     11        8          -0.000019712    0.000551787    0.000876314
     12        1          -0.002631723   -0.000784441   -0.003982973
     13        8           0.000623792   -0.008992146    0.004020088
     14        1           0.000105052   -0.000255581    0.000152062
 -------------------------------------------------------------------
 Cartesian Forces:  Max     0.008992146 RMS     0.002303390

 GradGradGradGradGradGradGradGradGradGradGradGradGradGradGradGradGradGrad
 Berny optimization.
 FormGI is forming the generalized inverse of G from B-inverse, IUseBI=4.
 Internal  Forces:  Max     0.009475337 RMS     0.001291806
 Search for a saddle point.
 Step number   2 out of a maximum of   76
 All quantities printed in internal units (Hartrees-Bohrs-Radians)
 Swapping is turned off.
 Update second derivatives using D2CorX and points    1    2
 ITU=  0  0
     Eigenvalues ---   -0.01989  -0.00370   0.00103   0.00255   0.00368
     Eigenvalues ---    0.00713   0.01113   0.01404   0.02595   0.03294
     Eigenvalues ---    0.04619   0.04887   0.06206   0.07054   0.07456
     Eigenvalues ---    0.07523   0.09720   0.09846   0.10682   0.13179
     Eigenvalues ---    0.19764   0.22427   0.25117   0.25795   0.30278
     Eigenvalues ---    0.33814   0.36763   0.39083   0.39147   0.43527
     Eigenvalues ---    0.46020   0.50295   0.51680   0.58581   0.60452
     Eigenvalues ---    0.84484
 Eigenvectors required to have negative eigenvalues:
                          R10       R3        A14       A19       R14
   1                   -0.71970   0.38112   0.34713  -0.21373  -0.20737
                          R11       D7        D29       D28       D23
   1                    0.20582   0.12346  -0.08537  -0.08346  -0.08163
 RFO step:  Lambda0=1.536677271D-04 Lambda=-4.08233617D-03.
 Linear search not attempted -- option 19 set.
 Iteration  1 RMS(Cart)=  0.05926509 RMS(Int)=  0.01639037
 Iteration  2 RMS(Cart)=  0.01517381 RMS(Int)=  0.00294007
 Iteration  3 RMS(Cart)=  0.00026353 RMS(Int)=  0.00292131
 Iteration  4 RMS(Cart)=  0.00000100 RMS(Int)=  0.00292131
 Iteration  5 RMS(Cart)=  0.00000000 RMS(Int)=  0.00292131
 Variable       Old X    -DE/DX   Delta X   Delta X   Delta X     New X
                                 (Linear)    (Quad)   (Total)
    R1        2.52757   0.00064   0.00000  -0.00226  -0.00116   2.52641
    R2        2.44701   0.00011   0.00000  -0.00053   0.00070   2.44771
    R3        2.87243   0.00092   0.00000  -0.12411  -0.12344   2.74899
    R4        2.55101  -0.00002   0.00000  -0.00167  -0.00222   2.54879
    R5        2.82243   0.00036   0.00000   0.01451   0.01394   2.83636
    R6        2.59739   0.00004   0.00000   0.00061  -0.00077   2.59663
    R7        2.03758  -0.00000   0.00000  -0.00026  -0.00026   2.03731
    R8        2.56573  -0.00021   0.00000  -0.00296  -0.00320   2.56253
    R9        2.03743  -0.00000   0.00000  -0.00016  -0.00016   2.03728
   R10        3.01098  -0.00002   0.00000   0.19085   0.19062   3.20160
   R11        1.89256   0.00948   0.00000  -0.00032  -0.00013   1.89243
   R12        2.32119  -0.00003   0.00000   0.00248   0.00248   2.32366
   R13        2.35816  -0.00009   0.00000  -0.01035  -0.01103   2.34713
   R14        1.98507   0.00362   0.00000   0.08822   0.08897   2.07404
   R15        1.84003   0.00007   0.00000  -0.00006  -0.00006   1.83997
    A1        1.90380  -0.00003   0.00000   0.00537   0.00070   1.90450
    A2        2.11875   0.00047   0.00000   0.03641   0.02383   2.14258
    A3        2.24494  -0.00036   0.00000  -0.00114  -0.01000   2.23494
    A4        1.91495  -0.00028   0.00000  -0.00487  -0.00171   1.91324
    A5        2.15428   0.00104   0.00000   0.00962   0.00536   2.15964
    A6        2.21386  -0.00076   0.00000  -0.00497  -0.00400   2.20986
    A7        1.82536   0.00021   0.00000   0.00267   0.00184   1.82719
    A8        2.13344  -0.00012   0.00000  -0.00250  -0.00209   2.13135
    A9        2.32438  -0.00008   0.00000  -0.00017   0.00025   2.32464
   A10        1.89290   0.00003   0.00000  -0.00016  -0.00064   1.89227
   A11        2.26386  -0.00001   0.00000   0.00086   0.00110   2.26495
   A12        2.12643  -0.00003   0.00000  -0.00070  -0.00046   2.12597
   A13        1.88776   0.00007   0.00000  -0.00300  -0.00019   1.88757
   A14        2.66346  -0.00077   0.00000  -0.08852  -0.09140   2.57205
   A15        1.98070  -0.00029   0.00000  -0.00893  -0.00667   1.97403
   A16        2.01545   0.00061   0.00000  -0.00285  -0.00736   2.00809
   A17        2.28701  -0.00032   0.00000   0.01180   0.01404   2.30105
   A18        2.28023  -0.00007   0.00000   0.03857   0.03303   2.31326
   A19        2.76962  -0.00053   0.00000   0.05692   0.05295   2.82257
   A20        1.67406  -0.00064   0.00000   0.00848   0.00674   1.68080
   A21        1.90686   0.00018   0.00000  -0.01653  -0.01804   1.88882
   A22        1.91761   0.00022   0.00000   0.01574   0.01872   1.93633
    D1       -0.00412  -0.00001   0.00000   0.00134   0.00154  -0.00258
    D2       -3.13146   0.00008   0.00000   0.01744   0.01744  -3.11402
    D3       -2.97166  -0.00038   0.00000  -0.22084  -0.22043   3.09110
    D4        0.18418  -0.00029   0.00000  -0.20473  -0.20452  -0.02034
    D5        0.00453   0.00003   0.00000  -0.00233  -0.00182   0.00271
    D6        2.95576   0.00055   0.00000   0.24561   0.23970  -3.08772
    D7       -0.18209   0.00069   0.00000   0.35723   0.35419   0.17210
    D8       -3.11264   0.00018   0.00000   0.08592   0.08565  -3.02699
    D9        0.00194  -0.00002   0.00000   0.00020  -0.00059   0.00135
   D10       -3.13607   0.00004   0.00000  -0.00120  -0.00138  -3.13745
   D11        3.12868  -0.00009   0.00000  -0.01645  -0.01697   3.11170
   D12       -0.00934  -0.00004   0.00000  -0.01785  -0.01776  -0.02710
   D13       -3.13496   0.00004   0.00000   0.02519   0.02709  -3.10787
   D14        0.01303   0.00016   0.00000   0.02244   0.02583   0.03886
   D15        0.02339   0.00014   0.00000   0.04411   0.04572   0.06911
   D16       -3.11180   0.00026   0.00000   0.04135   0.04446  -3.06735
   D17        0.00079   0.00003   0.00000  -0.00161  -0.00051   0.00028
   D18       -3.14041   0.00004   0.00000  -0.00017   0.00007  -3.14034
   D19        3.13824  -0.00002   0.00000   0.00001   0.00040   3.13864
   D20       -0.00297  -0.00002   0.00000   0.00145   0.00098  -0.00199
   D21       -0.00331  -0.00004   0.00000   0.00248   0.00146  -0.00186
   D22        3.13793  -0.00005   0.00000   0.00118   0.00093   3.13886
   D23        0.18763  -0.00040   0.00000  -0.22423  -0.22853  -0.04089
   D24        0.02590   0.00007   0.00000   0.09475   0.08950   0.11540
   D25        2.00623   0.00009   0.00000   0.11118   0.10788   2.11411
   D26       -0.22403   0.00023   0.00000   0.17045   0.17149  -0.05254
   D27        2.92534   0.00038   0.00000   0.16720   0.17005   3.09539
   D28       -0.00055  -0.00029   0.00000  -0.20972  -0.21344  -0.21398
   D29       -1.97196  -0.00027   0.00000  -0.19949  -0.20167  -2.17362
         Item               Value     Threshold  Converged?
 Maximum Force            0.009475     0.000450     NO 
 RMS     Force            0.001292     0.000300     NO 
 Maximum Displacement     0.265297     0.001800     NO 
 RMS     Displacement     0.071492     0.001200     NO 
 Predicted change in Energy=-2.072854D-03
 GradGradGradGradGradGradGradGradGradGradGradGradGradGradGradGradGradGrad

                          Input orientation:                          
 ---------------------------------------------------------------------
 Center     Atomic      Atomic             Coordinates (Angstroms)
 Number     Number       Type             X           Y           Z
 ---------------------------------------------------------------------
      1          7           0       -0.355618   -0.966974    0.167079
      2          7           0       -0.398994    0.365869    0.072219
      3          6           0       -1.680946    0.770678   -0.036793
      4          6           0       -2.416838   -0.389188   -0.001344
      5          7           0       -1.562796   -1.434727    0.126275
      6          1           0       -1.947561    1.811183   -0.129355
      7          1           0       -3.483976   -0.530969   -0.059424
      8          1           0        2.291764   -1.010720    0.218188
      9          6           0        0.820785    1.240232    0.051098
     10          8           0        0.554020    2.439332   -0.003495
     11          8           0        1.903801    0.633126    0.085481
     12          1           0        0.892494   -1.711092    0.235387
     13          8           0        1.960069   -1.949595    0.324755
     14          1           0        2.265812   -2.469141   -0.439854
 ---------------------------------------------------------------------
                    Distance matrix (angstroms):
                    1          2          3          4          5
     1  N    0.000000
     2  N    1.336918   0.000000
     3  C    2.194879   1.348761   0.000000
     4  C    2.147284   2.155740   1.374075   0.000000
     5  N    1.295274   2.144645   2.214580   1.356033   0.000000
     6  H    3.215635   2.127821   1.078101   2.253495   3.278616
     7  H    3.166706   3.215394   2.223896   1.078081   2.131243
     8  H    2.648237   3.025968   4.361287   4.754517   3.878900
     9  C    2.503823   1.500939   2.546932   3.624908   3.583645
    10  O    3.529796   2.283247   2.789371   4.102015   4.416570
    11  O    2.769829   2.318290   3.589469   4.440787   4.036704
    12  H    1.454703   2.451190   3.585507   3.571435   2.473202
    13  O    2.520478   3.315166   4.559341   4.658167   3.565818
    14  H    3.081683   3.924372   5.122089   5.142539   4.006090
                    6          7          8          9         10
     6  H    0.000000
     7  H    2.801988   0.000000
     8  H    5.104488   5.802276   0.000000
     9  C    2.832364   4.656214   2.694157   0.000000
    10  O    2.582309   5.013106   3.869335   1.229628   0.000000
    11  O    4.033232   5.514006   1.694212   1.242049   2.256592
    12  H    4.539313   4.542366   1.564856   2.957941   4.171049
    13  O    5.442355   5.638946   1.001431   3.398212   4.620325
    14  H    6.014158   6.079581   1.600214   4.011058   5.216680
                   11         12         13         14
    11  O    0.000000
    12  H    2.557454   0.000000
    13  O    2.594391   1.097537   0.000000
    14  H    3.167189   1.707804   0.973670   0.000000
 Stoichiometry    C3H5N3O3
 Framework group  C1[X(C3H5N3O3)]
 Deg. of freedom    36
 Full point group                 C1      NOp   1
 Largest Abelian subgroup         C1      NOp   1
 Largest concise Abelian subgroup C1      NOp   1
                         Standard orientation:                         
 ---------------------------------------------------------------------
 Center     Atomic      Atomic             Coordinates (Angstroms)
 Number     Number       Type             X           Y           Z
 ---------------------------------------------------------------------
      1          7           0        0.334228   -0.982336   -0.045357
      2          7           0        0.395435    0.352910   -0.018492
      3          6           0        1.684660    0.746321    0.029294
      4          6           0        2.406108   -0.423122    0.028278
      5          7           0        1.536833   -1.462775   -0.019777
      6          1           0        1.965659    1.786664    0.061325
      7          1           0        3.472931   -0.575382    0.059316
      8          1           0       -2.313741   -0.994967   -0.009827
      9          6           0       -0.813246    1.242651   -0.002125
     10          8           0       -0.531571    2.439504   -0.015908
     11          8           0       -1.903472    0.648377    0.028333
     12          1           0       -0.923618   -1.713028   -0.036674
     13          8           0       -1.996110   -1.942097   -0.079972
     14          1           0       -2.282615   -2.419261    0.718941
 ---------------------------------------------------------------------
 Rotational constants (GHZ):           2.0484569           1.6578314           0.9185680
 Standard basis: 6-31+G(d,p) (6D, 7F)
 There are   196 symmetry adapted cartesian basis functions of A   symmetry.
 There are   196 symmetry adapted basis functions of A   symmetry.
   196 basis functions,   323 primitive gaussians,   196 cartesian basis functions
    34 alpha electrons       34 beta electrons
       nuclear repulsion energy       459.3982117557 Hartrees.
 NAtoms=   14 NActive=   14 NUniq=   14 SFac= 1.00D+00 NAtFMM=   60 NAOKFM=F Big=F
 Integral buffers will be    131072 words long.
 Raffenetti 2 integral format.
 Two-electron integral symmetry is turned on.
 ------------------------------------------------------------------------------
 Polarizable Continuum Model (PCM)
 =================================
 Model                : PCM.
 Atomic radii         : SMD-Coulomb.
 Polarization charges : Total charges.
 Charge compensation  : None.
 Solution method      : Matrix inversion.
 Cavity type          : VdW (van der Waals Surface) (Alpha=1.000).
 Cavity algorithm     : GePol (No added spheres)
                        Default sphere list used, NSphG=   14.
                        Lebedev-Laikov grids with approx.  5.0 points / Ang**2.
                        Smoothing algorithm: York/Karplus (Gamma=1.0000).
                        Polarization charges: spherical gaussians, with
                                              point-specific exponents (IZeta= 3).
                        Self-potential: point-specific (ISelfS= 7).
                        Self-field    : sphere-specific E.n sum rule (ISelfD= 2).
 1st derivatives      : Analytical E(r).r(x)/FMM algorithm (CHGder, D1EAlg=3).
                        Cavity 1st derivative terms included.
 Solvent              : Water, Eps=  78.355300 Eps(inf)=   1.777849
 ------------------------------------------------------------------------------
 Spheres list:
 ISph  on   Nord     Re0    Alpha      Xe            Ye            Ze
    1   N      1    1.8900  1.000      0.334228     -0.982336     -0.045357
    2   N      2    1.8900  1.000      0.395435      0.352910     -0.018492
    3   C      3    1.8500  1.000      1.684660      0.746321      0.029294
    4   C      4    1.8500  1.000      2.406108     -0.423122      0.028278
    5   N      5    1.8900  1.000      1.536833     -1.462775     -0.019777
    6   H      6    1.2000  1.000      1.965659      1.786664      0.061325
    7   H      7    1.2000  1.000      3.472931     -0.575382      0.059316
    8   H      8    1.2000  1.000     -2.313741     -0.994967     -0.009827
    9   C      9    1.8500  1.000     -0.813246      1.242651     -0.002125
   10   O     10    1.5200  1.000     -0.531571      2.439504     -0.015908
   11   O     11    1.5200  1.000     -1.903472      0.648377      0.028333
   12   H     12    1.2000  1.000     -0.923618     -1.713028     -0.036674
   13   O     13    1.5200  1.000     -1.996110     -1.942097     -0.079972
   14   H     14    1.2000  1.000     -2.282615     -2.419261      0.718941
 ------------------------------------------------------------------------------
 ------------------------------------------------------------------------------
 Atomic radii for non-electrostatic terms: SMD-CDS.
 ------------------------------------------------------------------------------
 Nuclear repulsion after PCM non-electrostatic terms =      459.4059389809 Hartrees.
 One-electron integrals computed using PRISM.
 NBasis=   196 RedAO= T EigKep=  1.89D-05  NBF=   196
 NBsUse=   196 1.00D-06 EigRej= -1.00D+00 NBFU=   196
 Initial guess from the checkpoint file:  "/home/gau/soft/scratch/Gau-36183.chk"
 B after Tr=    -0.000000    0.000000   -0.000000
         Rot=    0.999956    0.000319   -0.000065    0.009364 Ang=   1.07 deg.
 ExpMin= 4.38D-02 ExpMax= 5.48D+03 ExpMxC= 8.25D+02 IAcc=3 IRadAn=         5 AccDes= 0.00D+00
 Harris functional with IExCor= 1009 and IRadAn=       5 diagonalized for initial guess.
 HarFok:  IExCor= 1009 AccDes= 0.00D+00 IRadAn=         5 IDoV= 1 UseB2=F ITyADJ=14
 ICtDFT=  3500011 ScaDFX=  1.000000  1.000000  1.000000  1.000000
 FoFCou: FMM=F IPFlag=           0 FMFlag=      100000 FMFlg1=           0
         NFxFlg=           0 DoJE=T BraDBF=F KetDBF=T FulRan=T
         wScrn=  0.000000 ICntrl=       500 IOpCl=  0 I1Cent=   200000004 NGrid=           0
         NMat0=    1 NMatS0=      1 NMatT0=    0 NMatD0=    1 NMtDS0=    0 NMtDT0=    0
 Petite list used in FoFCou.
 Requested convergence on RMS density matrix=1.00D-08 within 128 cycles.
 Requested convergence on MAX density matrix=1.00D-06.
 Requested convergence on             energy=1.00D-06.
 No special actions if energy rises.
 Inv3:  Mode=1 IEnd=     3995148.
 Iteration    1 A*A^-1 deviation from unit magnitude is 4.33D-15 for   1143.
 Iteration    1 A*A^-1 deviation from orthogonality  is 1.29D-15 for    682    369.
 Iteration    1 A^-1*A deviation from unit magnitude is 4.33D-15 for   1143.
 Iteration    1 A^-1*A deviation from orthogonality  is 1.71D-14 for    652    621.
 Error on total polarization charges =  0.04171
 SCF Done:  E(RM062X) =  -507.081512155     A.U. after   13 cycles
            NFock= 13  Conv=0.39D-08     -V/T= 2.0084
 SMD-CDS (non-electrostatic) energy       (kcal/mol) =       4.85
 (included in total energy above)
 D1PCM: PCM CHGder 1st derivatives, ID1Alg=3 FixD1E=F DoIter=F DoCFld=F I1PDM=0.
 Calling FoFJK, ICntrl=      2127 FMM=F ISym2X=0 I1Cent= 0 IOpClX= 0 NMat=1 NMatS=1 NMatT=0.
 ***** Axes restored to original set *****
 -------------------------------------------------------------------
 Center     Atomic                   Forces (Hartrees/Bohr)
 Number     Number              X              Y              Z
 -------------------------------------------------------------------
      1        7          -0.000337308    0.000842744   -0.000677829
      2        7           0.000689213    0.000891335   -0.000950518
      3        6           0.001166785    0.000459697    0.000224298
      4        6          -0.000105199   -0.001279100    0.000406062
      5        7          -0.000083516   -0.002044083   -0.000002936
      6        1          -0.000002301    0.000105661    0.000088333
      7        1          -0.000016703   -0.000068484    0.000091630
      8        1          -0.000027602   -0.001823363    0.000499587
      9        6          -0.001727056    0.000540154   -0.000093721
     10        8           0.000254895   -0.000571936   -0.000028968
     11        8           0.001541358   -0.001156463    0.000730793
     12        1           0.004158459    0.000861000    0.000638244
     13        8          -0.004891906    0.003880707   -0.001257298
     14        1          -0.000619119   -0.000637868    0.000332324
 -------------------------------------------------------------------
 Cartesian Forces:  Max     0.004891906 RMS     0.001401708

 GradGradGradGradGradGradGradGradGradGradGradGradGradGradGradGradGradGrad
 Berny optimization.
 FormGI is forming the generalized inverse of G from B-inverse, IUseBI=4.
 Internal  Forces:  Max     0.005558546 RMS     0.001030485
 Search for a saddle point.
 Step number   3 out of a maximum of   76
 All quantities printed in internal units (Hartrees-Bohrs-Radians)
 Swapping is turned off.
 Update second derivatives using D2CorX and points    2    3
 ITU=  0  0  0
     Eigenvalues ---   -0.02003   0.00045   0.00105   0.00315   0.00395
     Eigenvalues ---    0.00726   0.01114   0.01405   0.02596   0.03301
     Eigenvalues ---    0.04397   0.04864   0.06197   0.06980   0.07352
     Eigenvalues ---    0.07520   0.09662   0.09719   0.10679   0.13178
     Eigenvalues ---    0.19806   0.22414   0.25125   0.25586   0.30505
     Eigenvalues ---    0.33790   0.36758   0.39082   0.39147   0.43487
     Eigenvalues ---    0.45934   0.50171   0.51679   0.58562   0.60449
     Eigenvalues ---    0.84458
 Eigenvectors required to have negative eigenvalues:
                          R10       R3        A14       A19       R14
   1                    0.72552  -0.38363  -0.34301   0.22377   0.20989
                          R11       D7        A18       A20       A17
   1                   -0.20420  -0.11516   0.08492   0.06956   0.06258
 RFO step:  Lambda0=2.168871624D-05 Lambda=-6.05789701D-04.
 Linear search not attempted -- option 19 set.
 Iteration  1 RMS(Cart)=  0.03070520 RMS(Int)=  0.00259397
 Iteration  2 RMS(Cart)=  0.00167129 RMS(Int)=  0.00081100
 Iteration  3 RMS(Cart)=  0.00000752 RMS(Int)=  0.00081095
 Iteration  4 RMS(Cart)=  0.00000002 RMS(Int)=  0.00081095
 Variable       Old X    -DE/DX   Delta X   Delta X   Delta X     New X
                                 (Linear)    (Quad)   (Total)
    R1        2.52641  -0.00062   0.00000  -0.00469  -0.00421   2.52220
    R2        2.44771   0.00005   0.00000  -0.00040  -0.00039   2.44732
    R3        2.74899  -0.00196   0.00000   0.02721   0.02743   2.77642
    R4        2.54879  -0.00066   0.00000  -0.00049  -0.00044   2.54835
    R5        2.83636  -0.00024   0.00000  -0.00406  -0.00386   2.83250
    R6        2.59663   0.00178   0.00000   0.00495   0.00488   2.60150
    R7        2.03731   0.00010   0.00000   0.00042   0.00042   2.03774
    R8        2.56253  -0.00029   0.00000   0.00202   0.00193   2.56446
    R9        2.03728   0.00002   0.00000   0.00020   0.00020   2.03748
   R10        3.20160  -0.00071   0.00000   0.02071   0.02033   3.22193
   R11        1.89243  -0.00247   0.00000  -0.00368  -0.00404   1.88839
   R12        2.32366  -0.00062   0.00000   0.00011   0.00011   2.32377
   R13        2.34713   0.00156   0.00000   0.00272   0.00250   2.34963
   R14        2.07404  -0.00556   0.00000  -0.04368  -0.04355   2.03049
   R15        1.83997  -0.00008   0.00000  -0.00036  -0.00036   1.83961
    A1        1.90450   0.00189   0.00000   0.00737   0.00728   1.91179
    A2        2.14258  -0.00050   0.00000  -0.00488  -0.00500   2.13758
    A3        2.23494  -0.00137   0.00000  -0.00072  -0.00117   2.23377
    A4        1.91324  -0.00081   0.00000  -0.00172  -0.00190   1.91134
    A5        2.15964  -0.00049   0.00000  -0.00863  -0.00901   2.15063
    A6        2.20986   0.00130   0.00000   0.01176   0.01120   2.22106
    A7        1.82719   0.00003   0.00000  -0.00117  -0.00104   1.82615
    A8        2.13135  -0.00006   0.00000   0.00130   0.00123   2.13258
    A9        2.32464   0.00003   0.00000  -0.00012  -0.00019   2.32445
   A10        1.89227   0.00027   0.00000   0.00159   0.00160   1.89386
   A11        2.26495  -0.00008   0.00000  -0.00179  -0.00180   2.26315
   A12        2.12597  -0.00019   0.00000   0.00021   0.00020   2.12617
   A13        1.88757  -0.00138   0.00000  -0.00606  -0.00594   1.88163
   A14        2.57205  -0.00123   0.00000  -0.05337  -0.05430   2.51775
   A15        1.97403   0.00023   0.00000   0.00246   0.00271   1.97674
   A16        2.00809  -0.00014   0.00000  -0.00120  -0.00171   2.00638
   A17        2.30105  -0.00009   0.00000  -0.00123  -0.00098   2.30007
   A18        2.31326  -0.00078   0.00000   0.02366   0.02205   2.33531
   A19        2.82257   0.00239   0.00000   0.02008   0.01855   2.84113
   A20        1.68080   0.00082   0.00000   0.01556   0.01407   1.69487
   A21        1.88882   0.00074   0.00000   0.02446   0.02341   1.91223
   A22        1.93633  -0.00048   0.00000   0.01054   0.01136   1.94769
    D1       -0.00258   0.00008   0.00000   0.00434   0.00435   0.00177
    D2       -3.11402  -0.00028   0.00000  -0.04362  -0.04365   3.12551
    D3        3.09110   0.00045   0.00000   0.04109   0.04207   3.13317
    D4       -0.02034   0.00009   0.00000  -0.00687  -0.00593  -0.02628
    D5        0.00271  -0.00010   0.00000  -0.00321  -0.00301  -0.00031
    D6       -3.08772  -0.00054   0.00000  -0.04233  -0.04327  -3.13099
    D7        0.17210  -0.00042   0.00000   0.10821   0.10638   0.27848
    D8       -3.02699   0.00012   0.00000   0.15250   0.15170  -2.87529
    D9        0.00135  -0.00002   0.00000  -0.00358  -0.00376  -0.00241
   D10       -3.13745  -0.00017   0.00000  -0.00958  -0.00978   3.13595
   D11        3.11170   0.00031   0.00000   0.04565   0.04624  -3.12524
   D12       -0.02710   0.00016   0.00000   0.03966   0.04022   0.01312
   D13       -3.10787   0.00020   0.00000  -0.02826  -0.02686  -3.13473
   D14        0.03886   0.00006   0.00000  -0.03307  -0.03140   0.00746
   D15        0.06911  -0.00018   0.00000  -0.08422  -0.08339  -0.01428
   D16       -3.06735  -0.00032   0.00000  -0.08903  -0.08793   3.12791
   D17        0.00028  -0.00004   0.00000   0.00162   0.00193   0.00221
   D18       -3.14034  -0.00010   0.00000  -0.00291  -0.00293   3.13992
   D19        3.13864   0.00013   0.00000   0.00859   0.00891  -3.13563
   D20       -0.00199   0.00007   0.00000   0.00406   0.00406   0.00207
   D21       -0.00186   0.00009   0.00000   0.00096   0.00063  -0.00122
   D22        3.13886   0.00015   0.00000   0.00506   0.00503  -3.13929
   D23       -0.04089  -0.00033   0.00000  -0.14870  -0.14908  -0.18997
   D24        0.11540  -0.00018   0.00000   0.11058   0.10862   0.22402
   D25        2.11411  -0.00017   0.00000   0.13510   0.13400   2.24811
   D26       -0.05254   0.00024   0.00000   0.07733   0.07879   0.02625
   D27        3.09539   0.00006   0.00000   0.07137   0.07318  -3.11461
   D28       -0.21398   0.00027   0.00000  -0.13141  -0.13367  -0.34765
   D29       -2.17362  -0.00080   0.00000  -0.16851  -0.16976  -2.34339
         Item               Value     Threshold  Converged?
[...]
 ! D9    D(1,2,3,4)             -0.0314         -DE/DX =    0.0                 !
 ! D10   D(1,2,3,6)            179.9025         -DE/DX =    0.0                 !
 ! D11   D(9,2,3,4)           -179.8589         -DE/DX =    0.0                 !
 ! D12   D(9,2,3,6)              0.075          -DE/DX =    0.0                 !
 ! D13   D(1,2,9,10)           179.5647         -DE/DX =    0.0                 !
 ! D14   D(1,2,9,11)            -0.5047         -DE/DX =    0.0                 !
 ! D15   D(3,2,9,10)            -0.6303         -DE/DX =    0.0                 !
 ! D16   D(3,2,9,11)           179.3003         -DE/DX =    0.0                 !
 ! D17   D(2,3,4,5)              0.0097         -DE/DX =    0.0                 !
 ! D18   D(2,3,4,7)            179.9668         -DE/DX =    0.0                 !
 ! D19   D(6,3,4,5)           -179.9136         -DE/DX =    0.0                 !
 ! D20   D(6,3,4,7)              0.0435         -DE/DX =    0.0                 !
 ! D21   D(3,4,5,1)              0.0159         -DE/DX =    0.0                 !
 ! D22   D(7,4,5,1)           -179.9453         -DE/DX =    0.0                 !
 ! D23   D(13,8,11,9)           -9.1826         -DE/DX =    0.0                 !
 ! D24   D(11,8,13,12)           9.8993         -DE/DX =    0.0                 !
 ! D25   D(11,8,13,14)         124.5477         -DE/DX =    0.0                 !
 ! D26   D(2,9,11,8)             1.9823         -DE/DX =    0.0                 !
 ! D27   D(10,9,11,8)         -178.1027         -DE/DX =    0.0                 !
 ! D28   D(1,12,13,8)          -12.0462         -DE/DX =    0.0                 !
 ! D29   D(1,12,13,14)        -125.5534         -DE/DX =    0.0                 !
 --------------------------------------------------------------------------------
 GradGradGradGradGradGradGradGradGradGradGradGradGradGradGradGradGradGrad


 ----------------------------------------------------------------------

 Electric dipole moment (input orientation):
 (Debye = 10**-18 statcoulomb cm , SI units = C m)
                  (au)            (Debye)         (10**-30 SI)
   Tot        0.285030D+01      0.724475D+01      0.241659D+02
   x         -0.449587D+00     -0.114274D+01     -0.381176D+01
   y         -0.273721D+01     -0.695730D+01     -0.232071D+02
   z         -0.655565D+00     -0.166628D+01     -0.555811D+01

 Dipole polarizability, Alpha (input orientation).
 (esu units = cm**3 , SI units = C**2 m**2 J**-1)
 Alpha(0;0):
               (au)            (10**-24 esu)      (10**-40 SI)
   iso        0.931691D+02      0.138062D+02      0.153615D+02
   aniso      0.583156D+02      0.864149D+01      0.961495D+01
   xx         0.112442D+03      0.166621D+02      0.185391D+02
   yx        -0.401152D+01     -0.594445D+00     -0.661410D+00
   yy         0.112269D+03      0.166366D+02      0.185107D+02
   zx         0.214146D+01      0.317331D+00      0.353078D+00
   zy        -0.292304D+01     -0.433150D+00     -0.481944D+00
   zz         0.547965D+02      0.812000D+01      0.903472D+01

 ----------------------------------------------------------------------

 Dipole orientation:
     7         -0.48029716          0.60854906          1.81752330
     7         -0.83731507         -0.18015052         -0.55475993
     6         -3.28439256         -0.81443608         -0.88488596
     6         -4.39566682         -0.36818693          1.42152451
     7         -2.60219296          0.50622211          3.03197734
     1         -3.99648313         -1.50071384         -2.66632554
     1         -6.33232519         -0.61723579          2.00312414
     1          4.37145421          1.40546194          1.00880826
     6          1.22445755         -0.30103352         -2.48857265
     8          0.50394239         -1.09427880         -4.54855035
     8          3.34242043          0.41014156         -1.74878618
     1          2.01651467          1.41995432          2.74660530
     8          3.97359334          1.95844211          2.78152348
     1          4.91555755          0.91925369          3.97153023

 Electric dipole moment (dipole orientation):
 (Debye = 10**-18 statcoulomb cm , SI units = C m)
                  (au)            (Debye)         (10**-30 SI)
   Tot        0.285030D+01      0.724475D+01      0.241659D+02
   x          0.000000D+00      0.000000D+00      0.000000D+00
   y          0.000000D+00      0.000000D+00      0.000000D+00
   z          0.285030D+01      0.724475D+01      0.241659D+02

 Dipole polarizability, Alpha (dipole orientation).
 (esu units = cm**3 , SI units = C**2 m**2 J**-1)
 Alpha(0;0):
               (au)            (10**-24 esu)      (10**-40 SI)
   iso        0.931691D+02      0.138062D+02      0.153615D+02
   aniso      0.583156D+02      0.864149D+01      0.961495D+01
   xx         0.111197D+03      0.164778D+02      0.183340D+02
   yx         0.119744D+02      0.177442D+01      0.197431D+01
   yy         0.614278D+02      0.910266D+01      0.101281D+02
   zx         0.629998D+00      0.933561D-01      0.103873D+00
   zy         0.151493D+02      0.224490D+01      0.249778D+01
   zz         0.106882D+03      0.158383D+02      0.176225D+02

 ----------------------------------------------------------------------
 Unable to Open any file for archive entry.
 1\1\GINC-NODE01\Freq\RM062X\6-31+G(d,p)\C3H5N3O3\GAU\07-Dec-2023\0\\#N
  Geom=AllCheck Guess=TCheck SCRF=Check GenChk RM062X/6-31+G(d,p) Freq\
 \test\\0,1\N,-0.3610693659,-0.9729114296,0.1281324965\N,-0.3995605807,
 0.3603394127,0.0458601815\C,-1.6820851482,0.7715632727,-0.0320380457\C
 ,-2.4216828715,-0.3871810277,0.0067810848\N,-1.5692530614,-1.438244412
 6,0.1054325905\H,-1.9473143351,1.814135852,-0.1045355717\H,-3.49056402
 04,-0.5235528567,-0.0289170463\H,2.273870149,-0.9836401617,0.226568203
 9\C,0.822948528,1.2247112023,0.0477004108\O,0.5696297247,2.4235446277,
 -0.0445519888\O,1.9056529031,0.6165721866,0.142283484\H,0.9087896795,-
 1.7152076822,0.2189895328\O,1.9556605435,-1.9317951086,0.3250343695\H,
 2.2769934854,-2.4603176548,-0.4265217618\\Version=ES64L-G16RevC.01\Sta
 te=1-A\HF=-507.081703\RMSD=2.195e-09\RMSF=1.371e-05\ZeroPoint=0.097212
 6\Thermal=0.1049683\ETot=-506.9767348\HTot=-506.9757906\GTot=-507.0177
 345\Dipole=-0.4495867,-2.7372144,-0.6555652\DipoleDeriv=-1.0142223,0.9
 21387,-0.0908804,0.9185203,0.1324815,0.0197782,-0.0748039,0.0197143,-0
 .116509,-1.1934387,-1.0233788,0.0103504,-1.0468531,-0.7363552,0.002197
 7,0.0116002,0.0028823,0.0065494,0.2127869,0.5577323,-0.0227671,-0.0462
 368,0.1222201,-0.0110005,0.0122547,0.0150906,-0.016132,0.1337264,0.027
 9594,0.0095271,0.1841677,-0.3896634,0.0220729,-0.0015467,0.0181927,-0.
 1196951,-0.136392,-0.7361972,0.0521263,-0.188185,-0.312254,-0.0078246,
 0.0169113,-0.0324025,-0.2934235,0.1869434,-0.0143216,-0.001627,-0.0066
 06,0.2041307,0.002415,-0.0028394,0.0019448,0.2473804,0.0858935,0.00381
 64,-0.0061811,-0.024106,0.1443887,0.0038176,-0.004465,0.0055258,0.2301
 61,0.548988,-0.0626369,0.0451527,-0.2146227,1.3738258,-0.041515,0.0616
 649,-0.0410674,0.4326103,3.5300634,-0.102261,0.1467529,0.0579577,3.506
 3953,-0.1927454,0.142875,-0.2083282,0.5933346,-1.0914191,0.1454318,-0.
 0313124,0.1221807,-2.3412932,0.1190354,-0.0307123,0.1248373,-0.6297805
 ,-2.1586364,0.7366714,-0.1157773,0.578438,-1.6793081,0.0872017,-0.1153
 442,0.0938534,-0.6410606,1.968069,-0.8232459,0.0749261,-0.6728956,0.72
 58531,-0.0635445,0.0777625,-0.0748539,0.3878319,-1.5261889,0.4229114,-
 0.0417285,0.4136932,-1.275034,0.0177262,-0.0429892,0.0159398,-0.547408
 4,0.4538269,-0.0538683,-0.0285618,-0.0754525,0.5246129,0.0423853,-0.05
 0368,0.0586709,0.4661415\Polar=112.441591,-4.011517,112.2691415,2.1414
 551,-2.9230402,54.7964894\Quadrupole=7.158345,-6.2741293,-0.8842156,-1
 5.1862938,-2.3200683,3.4973879\PG=C01 [X(C3H5N3O3)]\NImag=1\\0.7247154
 2,-0.03362037,0.52966498,0.02680804,-0.02526573,0.13029131,-0.12019853
 ,0.08358184,-0.00720462,0.77489756,0.01028536,-0.26856807,0.01209268,0
 .00644737,0.66998549,-0.00274053,0.01517592,-0.07346960,0.02789648,-0.
 03327088,0.12073166,-0.06247907,0.06983258,-0.00739877,-0.31274344,0.0
 6848383,-0.01432240,0.62285571,0.01666659,-0.07370568,0.00607606,0.075
 11559,-0.15025186,0.00820677,-0.05492791,0.95207608,-0.00427777,0.0083
 8465,0.01597647,-0.01459012,0.00789011,-0.06739444,0.02337791,-0.05077
 031,0.13971749,-0.11751312,0.00299640,-0.00592402,-0.07056614,0.001798
 19,-0.00350837,-0.20525633,-0.14589466,0.00325986,0.93518962,0.0814079
 2,-0.00224051,0.00475206,-0.10171898,0.01184505,-0.00435227,-0.1006631
 4,-0.30823408,0.00993462,0.08804782,0.61215109,-0.01068980,0.00162147,
 0.02085063,0.00269350,0.00001258,0.01047602,0.00058519,0.00808482,-0.0
 7277908,0.02768463,-0.02485436,0.14034083,-0.36348306,-0.12706742,-0.0
 0385238,-0.09101417,-0.09195818,0.00057663,0.05745297,0.05958682,-0.00
 203991,-0.18316840,0.08520083,-0.00964178,0.58377149,-0.06076810,-0.13
 817865,0.00028595,-0.04004276,-0.10201688,0.00602542,-0.03103951,-0.07
 791773,0.00457559,0.09330748,-0.25407771,0.01476171,0.03729641,0.56543
 886,-0.00783293,-0.00262846,-0.09082613,-0.00247198,0.00404909,0.02695
 750,0.00337271,0.00836795,0.01961571,-0.01017961,0.01452441,-0.0735409
 1,0.01736885,-0.02551940,0.11595217,-0.00695894,0.00080166,-0.00058259
 ,-0.00199800,0.03231974,-0.00192523,-0.07374304,0.06857288,-0.00573328
 ,0.01321566,-0.01234904,0.00120911,-0.00082901,-0.00634602,0.00010187,
 0.06940076,-0.00255191,0.00201918,0.00015118,0.00050598,-0.00022687,-0
 .00006951,0.07979704,-0.36184172,0.02260321,0.00758466,-0.00433825,0.0
 0066333,0.00011007,-0.00198074,0.00048210,-0.08333127,0.36796312,-0.00
 043028,0.00029629,0.00625157,-0.00004310,0.00123102,-0.00190650,-0.006
 40072,0.02211091,-0.03396334,0.00003148,-0.00013640,0.00158714,-0.0002
 7311,0.00023136,0.00606976,0.00678565,-0.02362966,0.02549144,0.0000157
 3,0.00252875,-0.00049114,0.00020666,-0.00036706,-0.00023692,-0.0017626
 1,0.00290921,-0.00024609,-0.36993714,-0.04374694,-0.01127321,-0.011607
 48,-0.00325876,0.00000448,-0.00023025,-0.00020159,0.00009177,0.3829302
 2,0.00628588,-0.00405997,0.00100347,-0.00345276,-0.00612246,0.00062341
 ,-0.02194747,0.00590309,-0.00125746,-0.05071989,-0.06454525,-0.0001148
 8,0.02739175,0.00878832,0.00018010,0.00073060,0.00010475,-0.00010606,0
 .04238469,0.05799165,-0.00070116,0.00087265,0.00825006,-0.00005448,0.0
 0071917,0.00648536,0.00123287,-0.00023196,0.00009608,-0.01082558,0.000
 15262,-0.03211812,-0.00186980,-0.00105897,-0.00692100,0.00003739,-0.00
 014275,-0.00216687,0.01216973,-0.00025175,0.02526279,0.00170804,0.0016
 0386,-0.00037474,-0.00034858,0.00142494,-0.00011022,0.00047928,0.00024
 475,0.00000801,0.00074567,-0.00044363,0.00005381,0.00068322,-0.0007957
 2,0.00012488,0.00001176,0.00005742,0.00000252,0.00006453,-0.00006916,0
 .00000876,0.10253280,0.00545177,0.00057443,-0.00002316,-0.00531784,-0.
 00125872,-0.00020485,0.00237959,-0.00170426,0.00021800,0.00003599,-0.0
 0199571,0.00017250,-0.00235482,-0.00135134,-0.00005796,0.00020139,-0.0
 0006880,0.00001826,0.00000627,-0.00024412,0.00002182,0.13049474,0.2818
 4315,0.00018620,0.00014847,-0.00055453,0.00023211,0.00018808,-0.000011
 87,-0.00001104,0.00005761,-0.00004307,0.00010673,0.00000063,0.00008973
 ,0.00018298,-0.00009687,-0.00008834,-0.00000249,0.00000988,-0.00001073
 ,0.00000913,-0.00000415,0.00002868,-0.02317006,-0.01813146,0.04514667,
 0.00495589,-0.03541799,0.00307027,-0.09565368,0.01405744,-0.00264252,-
 0.03668254,-0.00750863,-0.00089752,-0.00159556,0.01638803,-0.00124512,
 0.02963454,0.01864005,-0.00023117,-0.00003173,0.00090719,0.00002794,0.
 00047587,0.00070193,-0.00008212,-0.00844423,0.03782540,-0.00213264,0.6
 0563624,-0.02968975,-0.03111179,0.00004196,0.01657281,-0.07911270,0.00
 228450,-0.01538043,0.01885749,-0.00212694,0.00814849,0.01047956,-0.000
 11441,0.02142763,0.00112068,0.00129277,0.00063699,-0.00177095,0.000030
 24,0.00036651,0.00181134,-0.00001440,0.00762233,-0.00899881,0.00099384
 ,-0.28174997,0.82760116,0.00255017,-0.00047285,-0.01300782,-0.00288160
 ,0.00204480,-0.05364280,-0.00034592,-0.00172258,-0.00565003,-0.0006880
 2,0.00029214,0.00358657,-0.00030175,0.00122037,0.00752408,0.00002768,0
 .00004736,-0.00184328,-0.00005671,0.00000710,0.00135515,-0.00073372,0.
 00272251,-0.00293251,0.03779849,-0.05351654,0.22629688,-0.00406330,0.0
 0377679,-0.00058386,0.00187185,-0.04477383,0.00218187,-0.00074957,-0.0
 0115235,0.00003193,0.00192825,-0.00079041,0.00012412,-0.00337977,-0.00
 599703,0.00028689,0.00010590,-0.00275909,0.00017239,-0.00008665,-0.000
 11904,0.00000886,0.00206963,-0.01171683,0.00052873,-0.10352645,0.10003
 677,-0.00774140,0.13595661,-0.00808361,0.01228009,-0.00086002,-0.02959
 823,-0.08344661,0.00518281,0.01015673,-0.00259325,0.00061009,-0.000087
 76,-0.00485428,0.00031673,-0.01021201,-0.00799517,-0.00010353,-0.00069
 891,-0.00029799,-0.00001346,-0.00023651,-0.00026543,0.00000038,-0.0033
 6508,0.01552766,-0.00090391,0.08785149,-0.55312265,0.03538952,-0.12798
 747,0.71236173,0.00020150,-0.00035556,0.00464177,0.00118782,0.00453419
 ,0.01702177,-0.00071871,0.00011394,0.00046075,0.00007418,0.00028182,0.
 00024503,0.00057118,0.00015048,-0.00197038,0.00004532,-0.00010304,-0.0
 0009256,0.00001519,0.00000483,-0.00010356,0.00029564,-0.00171149,0.001
 57121,-0.00687385,0.03603721,-0.08413301,0.01366666,-0.05141209,0.0361
 9342,0.00711027,0.01322596,-0.00055110,-0.08895861,0.00111234,-0.00516
 550,0.00841127,-0.01095673,0.00081501,-0.00425329,-0.00590323,0.000236
 82,-0.01106119,-0.00326438,-0.00024179,0.00048386,-0.00031154,0.000029
 51,-0.00023081,-0.00113060,0.00009702,-0.00105344,-0.03910926,0.002201
 09,-0.40020463,0.16941987,-0.02755130,-0.02910407,0.08400921,-0.008567
 47,0.51562670,-0.00052703,-0.00090504,0.00025347,-0.01129548,0.0138793
 8,-0.00027609,-0.00173392,-0.00132351,0.00016692,-0.00192243,0.0014883
 8,-0.00021106,0.00137075,0.00217143,-0.00015273,-0.00037884,0.00045796
 ,-0.00003816,-0.00009185,0.00000854,-0.00002948,-0.01182434,0.02420812
 ,-0.00170443,0.17415360,-0.18306880,0.01519150,0.08385954,-0.08112212,
 0.01153899,-0.23592002,0.27520333,0.00021609,0.00091136,0.00095435,-0.
 00440693,0.00029479,0.01618028,0.00035783,-0.00028752,0.00315884,-0.00
 008138,-0.00037782,-0.00044004,-0.00057617,-0.00029973,-0.00051461,0.0
 0004560,-0.00004218,0.00005939,0.00001788,-0.00008902,-0.00054794,0.00
 080561,-0.00298680,-0.00603781,-0.02835367,0.01509158,-0.07863860,-0.0
 0828088,0.01140021,0.02675085,0.04049508,-0.02739975,0.03485919,-0.003
 49446,-0.01465264,0.00138729,0.00955698,0.00185539,0.00027956,0.010886
 12,-0.00641828,0.00078694,0.00644606,-0.01156255,0.00087605,-0.0062625
 9,-0.00509952,0.00013215,0.00137549,0.00045798,0.00001065,0.00065541,-
 0.00094721,0.00006030,-0.02163290,-0.02243208,-0.00359918,0.01764205,0
 .00788984,0.00042467,-0.00396012,-0.00287301,-0.00005091,-0.01015097,0
 .00868995,-0.00059776,0.14766643,-0.00835803,-0.02650589,-0.00041235,0
 .00688708,-0.00550195,0.00046263,-0.00602873,0.00041017,-0.00022468,-0
 .00507707,0.00490675,-0.00034422,-0.00405717,0.00895670,-0.00094622,-0
 .00013454,-0.00010566,0.00004818,-0.00045250,0.00086472,-0.00003668,-0
 .03234012,0.00879202,-0.00209855,-0.00364240,-0.00722603,0.00025672,0.
 00063474,0.00294353,-0.00013807,0.00357185,0.00047740,-0.00004697,0.02
 908215,0.06754844,0.00084245,-0.00070790,-0.01861521,0.00012567,0.0003
 8342,-0.00192886,0.00069017,-0.00017144,0.00113738,0.00041963,-0.00058
 673,0.00229346,0.00007458,-0.00090048,-0.00301059,0.00002837,0.0000715
 0,0.00070621,0.00002063,-0.00004602,0.00056218,0.00296488,0.00095902,0
 .00346072,0.00064234,0.00076676,-0.00017286,-0.00011993,-0.00034573,0.
 00001881,-0.00041316,-0.00021317,-0.00052964,0.00998970,0.01022505,0.0
 5828890,-0.05700590,0.03205233,-0.00229462,-0.00519943,-0.00079681,-0.
 00015452,-0.00643047,0.00365178,-0.00053584,-0.00502909,0.00596008,-0.
 00073837,-0.00052025,0.00699455,-0.00017537,-0.00078509,-0.00027521,-0
 .00005483,-0.00047254,0.00084512,-0.00011747,-0.08262570,-0.09326354,0
 .03948619,-0.01066006,-0.00556620,-0.00047089,0.00246141,0.00164665,0.
 00013802,0.01175941,-0.00180531,-0.00022719,-0.14813228,0.00526385,-0.
 04106896,0.39674876,0.02502432,-0.00055832,0.00217636,0.00230461,0.001
 03285,0.00016759,0.00149126,0.00017173,0.00003261,0.00200887,-0.001024
 44,0.00005782,0.00296290,-0.00312194,0.00046883,0.00001569,0.00010199,
 -0.00004904,0.00018513,-0.00026801,0.00000387,-0.10640631,-0.30223901,
 0.04966314,-0.02148095,0.00499998,-0.00168257,0.00677540,-0.00947365,0
 .00117264,0.02496855,-0.04981033,0.00286368,0.00964296,-0.05165792,-0.
 00936613,-0.01684211,0.57843521,-0.00103754,0.00115028,0.00973717,-0.0
 0038625,0.00013956,0.00045363,-0.00006195,0.00005614,-0.00030668,-0.00
 003077,0.00003098,-0.00060049,-0.00011960,0.00027738,0.00081240,-0.000
 00344,-0.00002311,-0.00018644,0.00001258,0.00000341,-0.00018265,0.0233
 9686,0.01718051,-0.04372334,-0.00016929,0.00018478,0.00112580,0.000118
 41,-0.00006659,-0.00054467,-0.00050281,-0.00051985,0.00515800,-0.01450
 397,-0.00969598,-0.04558429,-0.12479792,0.17269953,0.38534625,-0.00330
 898,0.00035824,-0.00200776,0.00014751,0.00011127,-0.00012832,-0.000238
 27,0.00011093,0.00004087,-0.00020618,0.00017324,0.00012505,-0.00021630
 ,0.00037332,-0.00025897,-0.00001736,0.00001027,0.00005014,-0.00002094,
 0.00004615,0.00003566,0.00580993,-0.00220076,-0.01401775,-0.00154571,0
 .00026511,-0.00002970,0.00047629,-0.00052149,0.00001541,0.00162551,-0.
 00257463,0.00058588,-0.00059523,0.01465089,0.02580364,-0.09410877,0.06
 934969,0.11808569,0.09219850,-0.00152303,0.00129524,-0.00027193,0.0000
 1077,-0.00023666,0.00004456,-0.00041993,0.00015352,-0.00003641,-0.0002
 2609,0.00043942,-0.00005203,0.00030243,0.00016416,0.00004304,-0.000040
 33,-0.00001603,0.00000651,-0.00002534,0.00003285,-0.00000451,0.0137963
 3,-0.01308460,-0.02812227,-0.00072520,-0.00045849,0.00022251,0.0002128
 1,0.00005815,-0.00011384,0.00028797,-0.00166474,0.00096817,0.00636702,
 -0.00390230,-0.00006814,0.06213483,-0.16658815,-0.18141704,-0.08015224
 ,0.18380764,-0.00309445,0.00086941,-0.00048002,-0.00009649,-0.00030860
 ,0.00004784,-0.00035719,0.00010961,-0.00002607,-0.00033876,0.00033832,
 0.00000923,-0.00009972,0.00034719,-0.00005967,-0.00003395,-0.00001831,
 0.00000422,-0.00003733,0.00004703,-0.00000016,-0.00327224,0.00182310,0
 .00310519,0.00108885,-0.00095135,0.00013244,-0.00039380,0.00080559,-0.
 00005944,-0.00088140,0.00339384,-0.00041228,0.00480451,0.00295114,0.00
 337378,0.13101178,-0.21820834,-0.31150469,-0.12829982,0.20880136,0.305
 86963\\-0.00000689,0.00000395,-0.00000981,0.00000410,0.00000519,0.0000
 0794,0.00000894,0.00001073,0.00001917,-0.00000138,0.00001098,0.0000106
 6,-0.00000976,0.00000689,-0.00000319,0.00001185,0.00001309,0.00002767,
 -0.00000223,0.00002141,0.00001395,-0.00000160,-0.00002290,-0.00001773,
 0.00000375,-0.00000542,0.00000652,0.00001591,-0.00000411,0.00002073,0.
 00001141,-0.00001311,0.00000172,-0.00001897,-0.00000620,-0.00002025,0.
 00000219,-0.00000991,-0.00002420,-0.00001733,-0.00001057,-0.00003319\\
 \@
 The archive entry for this job was punched.


 I (ERNEST RUTHERFORD) CAME INTO THE ROOM, WHICH WAS HALF DARK, AND PRESENTLY
 SPOTTED LORD KELVIN IN THE AUDIENCE AND REALIZED I WAS IN TROUBLE AT
 THE LAST PART OF MY SPEECH DEALING THE AGE OF THE EARTH, WHERE MY VIEWS
 CONFLICTED WITH HIS.  TO MY RELIEF KELVIN FELL FAST ASLEEP, BUT AS I CAME
 TO THE IMPORTANT POINT, I SAW THE OLD BIRD SIT UP AND COCK A BALEFUL GLANCE
 AT ME! THEN A SUDDEN INSPIRATION CAME AND I SAID LORD KELVIN HAD LIMITED
 THE AGE OF THE EARTH PROVIDED NO NEW SOURCE WAS DISCOVERED. THAT
 PROPHETIC UTTERANCE REFERS TO WHAT WE ARE NOW CONSIDERING TONIGHT, RADIUM!
 BEHOLD!  THE OLD BOY BEAMED UPON ME.
 Job cpu time:       0 days  0 hours 36 minutes 38.5 seconds.
 Elapsed time:       0 days  0 hours  0 minutes 46.3 seconds.
 File lengths (MBytes):  RWF=     89 Int=      0 D2E=      0 Chk=     10 Scr=      1
 Normal termination of Gaussian 16 at Thu Dec  7 00:17:01 2023.
