 Entering Gaussian System, Link 0=/opt/soft/g16/g16
 Initial command:
 /opt/soft/g16/l1.exe "/scratch/gongke2021/RC/Gau-9616.inp" -scrdir="/scratch/gongke2021/RC/"
 Entering Link 1 = /opt/soft/g16/l1.exe PID=      9617.
  
 Copyright (c) 1988,1990,1992,1993,1995,1998,2003,2009,2016,
            Gaussian, Inc.  All Rights Reserved.
  
 This is part of the Gaussian(R) 16 program.  It is based on
 the Gaussian(R) 09 system (copyright 2009, Gaussian, Inc.),
 the Gaussian(R) 03 system (copyright 2003, Gaussian, Inc.),
 the Gaussian(R) 98 system (copyright 1998, Gaussian, Inc.),
 the Gaussian(R) 94 system (copyright 1995, Gaussian, Inc.),
 the Gaussian 92(TM) system (copyright 1992, Gaussian, Inc.),
 the Gaussian 90(TM) system (copyright 1990, Gaussian, Inc.),
 the Gaussian 88(TM) system (copyright 1988, Gaussian, Inc.),
 the Gaussian 86(TM) system (copyright 1986, Carnegie Mellon
 University), and the Gaussian 82(TM) system (copyright 1983,
 Carnegie Mellon University). Gaussian is a federally registered
 trademark of Gaussian, Inc.
  
 This software contains proprietary and confidential information,
 including trade secrets, belonging to Gaussian, Inc.
  
 This software is provided under written license and may be
 used, copied, transmitted, or stored only in accord with that
 written license.
  
 The following legend is applicable only to US Government
 contracts under FAR:
  
                    RESTRICTED RIGHTS LEGEND
  
 Use, reproduction and disclosure by the US Government is
 subject to restrictions as set forth in subparagraphs (a)
 and (c) of the Commercial Computer Software - Restricted
 Rights clause in FAR 52.227-19.
  
 Gaussian, Inc.
 340 Quinnipiac St., Bldg. 40, Wallingford CT 06492
  
  
 ---------------------------------------------------------------
 Warning -- This program may not be used in any manner that
 competes with the business of Gaussian, Inc. or will provide
 assistance to any competitor of Gaussian, Inc.  The licensee
 of this program is prohibited from giving any competitor of
 Gaussian, Inc. access to this program.  By using this program,
 the user acknowledges that Gaussian, Inc. is engaged in the
 business of creating and licensing software in the field of
 computational chemistry and represents and warrants to the
 licensee that it is not a competitor of Gaussian, Inc. and that
 it will not use this program in any manner prohibited above.
 ---------------------------------------------------------------
  

 Cite this work as:
 Gaussian 16, Revision A.03,
 M. J. Frisch, G. W. Trucks, H. B. Schlegel, G. E. Scuseria, 
 M. A. Robb, J. R. Cheeseman, G. Scalmani, V. Barone, 
 G. A. Petersson, H. Nakatsuji, X. Li, M. Caricato, A. V. Marenich, 
 J. Bloino, B. G. Janesko, R. Gomperts, B. Mennucci, H. P. Hratchian, 
 J. V. Ortiz, A. F. Izmaylov, J. L. Sonnenberg, D. Williams-Young, 
 F. Ding, F. Lipparini, F. Egidi, J. Goings, B. Peng, A. Petrone, 
 T. Henderson, D. Ranasinghe, V. G. Zakrzewski, J. Gao, N. Rega, 
 G. Zheng, W. Liang, M. Hada, M. Ehara, K. Toyota, R. Fukuda, 
 J. Hasegawa, M. Ishida, T. Nakajima, Y. Honda, O. Kitao, H. Nakai, 
 T. Vreven, K. Throssell, J. A. Montgomery, Jr., J. E. Peralta, 
 F. Ogliaro, M. J. Bearpark, J. J. Heyd, E. N. Brothers, K. N. Kudin, 
 V. N. Staroverov, T. A. Keith, R. Kobayashi, J. Normand, 
 K. Raghavachari, A. P. Rendell, J. C. Burant, S. S. Iyengar, 
 J. Tomasi, M. Cossi, J. M. Millam, M. Klene, C. Adamo, R. Cammi, 
 J. W. Ochterski, R. L. Martin, K. Morokuma, O. Farkas, 
 J. B. Foresman, and D. J. Fox, Gaussian, Inc., Wallingford CT, 2016.
 
 ******************************************
 Gaussian 16:  ES64L-G16RevA.03 25-Dec-2016
                 6-Jul-2023 
 ******************************************
 %mem=10GB
 %nprocshared=24
 Will use up to   24 processors via shared memory.
 -----------------------------------------------------
 # opt freq 6-31+g(d,p) m062x scrf=(SMD,solvent=water)
 -----------------------------------------------------
 1/18=20,19=15,26=3,38=1/1,3;
 2/9=110,12=2,17=6,18=5,40=1/2;
 3/5=1,6=6,7=111,11=2,25=1,30=1,70=32201,71=1,72=1,74=-55/1,2,3;
 4//1;
 5/5=2,38=5,53=1/2;
 6/7=2,8=2,9=2,10=2,28=1/1;
 7//1,2,3,16;
 1/18=20,19=15,26=3/3(2);
 2/9=110/2;
 99//99;
 2/9=110/2;
 3/5=1,6=6,7=111,11=2,25=1,30=1,70=32205,71=1,72=1,74=-55/1,2,3;
 4/5=5,16=3,69=1/1;
 5/5=2,38=5,53=1/2;
 7//1,2,3,16;
 1/18=20,19=15,26=3/3(-5);
 2/9=110/2;
 6/7=2,8=2,9=2,10=2,19=2,28=1/1;
 99/9=1/99;
 ----
 test
 ----
 Symbolic Z-matrix:
 Charge = -1 Multiplicity = 2
 N                    -0.83858  -0.8028   -0.00107 
 N                    -0.35628   0.42484   0.00037 
 C                    -1.44718   1.18732   0.00116 
 C                    -2.57144   0.34435   0.00026 
 N                    -2.14939  -0.91853  -0.00108 
 H                    -1.37506   2.26355   0.00217 
 H                    -3.62392   0.58021   0.00057 
 H                    -0.2211   -1.60397  -0.00155 
 C                     0.94487   0.36895  -0.05915 
 O                     1.82323   1.32672  -0.09475 
 O                     1.1173   -0.8896   -0.09132 
 

 GradGradGradGradGradGradGradGradGradGradGradGradGradGradGradGradGradGrad
 Berny optimization.
 Initialization pass.
                           ----------------------------
                           !    Initial Parameters    !
                           ! (Angstroms and Degrees)  !
 --------------------------                            --------------------------
 ! Name  Definition              Value          Derivative Info.                !
 --------------------------------------------------------------------------------
 ! R1    R(1,2)                  1.319          estimate D2E/DX2                !
 ! R2    R(1,5)                  1.3159         estimate D2E/DX2                !
 ! R3    R(1,8)                  1.0115         estimate D2E/DX2                !
 ! R4    R(2,3)                  1.331          estimate D2E/DX2                !
 ! R5    R(2,9)                  1.3037         estimate D2E/DX2                !
 ! R6    R(3,4)                  1.4052         estimate D2E/DX2                !
 ! R7    R(3,6)                  1.0786         estimate D2E/DX2                !
 ! R8    R(4,5)                  1.3315         estimate D2E/DX2                !
 ! R9    R(4,7)                  1.0786         estimate D2E/DX2                !
 ! R10   R(9,10)                 1.3            estimate D2E/DX2                !
 ! R11   R(9,11)                 1.2707         estimate D2E/DX2                !
 ! A1    A(2,1,5)              116.4943         estimate D2E/DX2                !
 ! A2    A(2,1,8)              120.9293         estimate D2E/DX2                !
 ! A3    A(5,1,8)              122.5764         estimate D2E/DX2                !
 ! A4    A(1,2,3)              103.5026         estimate D2E/DX2                !
 ! A5    A(1,2,9)              108.9651         estimate D2E/DX2                !
 ! A6    A(3,2,9)              147.418          estimate D2E/DX2                !
 ! A7    A(2,3,4)              108.1865         estimate D2E/DX2                !
 ! A8    A(2,3,6)              121.1174         estimate D2E/DX2                !
 ! A9    A(4,3,6)              130.6961         estimate D2E/DX2                !
 ! A10   A(3,4,5)              108.3832         estimate D2E/DX2                !
 ! A11   A(3,4,7)              130.5065         estimate D2E/DX2                !
 ! A12   A(5,4,7)              121.1104         estimate D2E/DX2                !
 ! A13   A(1,5,4)              103.4334         estimate D2E/DX2                !
 ! A14   A(2,9,10)             130.0886         estimate D2E/DX2                !
 ! A15   A(2,9,11)             100.3142         estimate D2E/DX2                !
 ! A16   A(10,9,11)            129.591          estimate D2E/DX2                !
 ! D1    D(5,1,2,3)             -0.0105         estimate D2E/DX2                !
 ! D2    D(5,1,2,9)           -177.2424         estimate D2E/DX2                !
 ! D3    D(8,1,2,3)           -179.9744         estimate D2E/DX2                !
 ! D4    D(8,1,2,9)              2.7937         estimate D2E/DX2                !
 ! D5    D(2,1,5,4)              0.0102         estimate D2E/DX2                !
 ! D6    D(8,1,5,4)            179.9735         estimate D2E/DX2                !
 ! D7    D(1,2,3,4)              0.0061         estimate D2E/DX2                !
 ! D8    D(1,2,3,6)           -179.9866         estimate D2E/DX2                !
 ! D9    D(9,2,3,4)            175.1408         estimate D2E/DX2                !
 ! D10   D(9,2,3,6)             -4.8519         estimate D2E/DX2                !
 ! D11   D(1,2,9,10)           179.1853         estimate D2E/DX2                !
 ! D12   D(1,2,9,11)             0.034          estimate D2E/DX2                !
 ! D13   D(3,2,9,10)             4.188          estimate D2E/DX2                !
 ! D14   D(3,2,9,11)          -174.9633         estimate D2E/DX2                !
 ! D15   D(2,3,4,5)             -0.0004         estimate D2E/DX2                !
 ! D16   D(2,3,4,7)            179.9945         estimate D2E/DX2                !
 ! D17   D(6,3,4,5)            179.9913         estimate D2E/DX2                !
 ! D18   D(6,3,4,7)             -0.0138         estimate D2E/DX2                !
 ! D19   D(3,4,5,1)             -0.0054         estimate D2E/DX2                !
 ! D20   D(7,4,5,1)            179.9991         estimate D2E/DX2                !
 --------------------------------------------------------------------------------
 Trust Radius=3.00D-01 FncErr=1.00D-07 GrdErr=1.00D-06 EigMax=2.50D+02 EigMin=1.00D-04
 Number of steps in this run=     57 maximum allowed number of steps=    100.
 GradGradGradGradGradGradGradGradGradGradGradGradGradGradGradGradGradGrad

                          Input orientation:                          
 ---------------------------------------------------------------------
 Center     Atomic      Atomic             Coordinates (Angstroms)
 Number     Number       Type             X           Y           Z
 ---------------------------------------------------------------------
      1          7           0       -0.838582   -0.802797   -0.001069
      2          7           0       -0.356276    0.424842    0.000365
      3          6           0       -1.447183    1.187316    0.001156
      4          6           0       -2.571441    0.344353    0.000256
      5          7           0       -2.149394   -0.918534   -0.001079
      6          1           0       -1.375064    2.263546    0.002172
      7          1           0       -3.623922    0.580211    0.000572
      8          1           0       -0.221104   -1.603967   -0.001551
      9          6           0        0.944875    0.368946   -0.059149
     10          8           0        1.823226    1.326721   -0.094748
     11          8           0        1.117301   -0.889597   -0.091325
 ---------------------------------------------------------------------
                    Distance matrix (angstroms):
                    1          2          3          4          5
     1  N    0.000000
     2  N    1.318984   0.000000
     3  C    2.081093   1.330957   0.000000
     4  C    2.078161   2.216627   1.405185   0.000000
     5  N    1.315912   2.240521   2.219844   1.331544   0.000000
     6  H    3.112922   2.102086   1.078644   2.261553   3.274940
     7  H    3.109796   3.271338   2.259816   1.078585   2.102492
     8  H    1.011510   2.033308   3.048694   3.052874   2.046490
     9  C    2.134730   1.303710   2.528894   3.516903   3.351936
    10  O    3.410109   2.360648   3.274783   4.504128   4.564170
    11  O    1.959887   1.976761   3.301317   3.890737   3.268069
                    6          7          8          9         10
     6  H    0.000000
     7  H    2.809089   0.000000
     8  H    4.036000   4.043490   0.000000
     9  C    2.995895   4.574068   2.292424   0.000000
    10  O    3.334080   5.498889   3.574479   1.300039   0.000000
    11  O    4.020315   4.964672   1.519773   1.270707   2.326028
                   11
    11  O    0.000000
 Stoichiometry    C3H3N3O2(1-,2)
 Framework group  C1[X(C3H3N3O2)]
 Deg. of freedom    27
 Full point group                 C1      NOp   1
 Largest Abelian subgroup         C1      NOp   1
 Largest concise Abelian subgroup C1      NOp   1
                         Standard orientation:                         
 ---------------------------------------------------------------------
 Center     Atomic      Atomic             Coordinates (Angstroms)
 Number     Number       Type             X           Y           Z
 ---------------------------------------------------------------------
      1          7           0       -0.563317   -0.851563    0.022055
      2          7           0        0.092591    0.292722    0.032833
      3          6           0       -0.875257    1.205957    0.006099
      4          6           0       -2.110034    0.535750   -0.020228
      5          7           0       -1.876636   -0.775133   -0.009166
      6          1           0       -0.647099    2.260195    0.006901
      7          1           0       -3.116617    0.922394   -0.045566
      8          1           0       -0.069358   -1.734121    0.037820
      9          6           0        1.372736    0.047584    0.004626
     10          8           0        2.381889    0.867004   -0.011637
     11          8           0        1.360604   -1.222804   -0.021136
 ---------------------------------------------------------------------
 Rotational constants (GHZ):           5.9044246           1.8738794           1.4227729
 Standard basis: 6-31+G(d,p) (6D, 7F)
 There are   167 symmetry adapted cartesian basis functions of A   symmetry.
 There are   167 symmetry adapted basis functions of A   symmetry.
   167 basis functions,   277 primitive gaussians,   167 cartesian basis functions
    30 alpha electrons       29 beta electrons
       nuclear repulsion energy       372.7030613085 Hartrees.
 NAtoms=   11 NActive=   11 NUniq=   11 SFac= 1.00D+00 NAtFMM=   60 NAOKFM=F Big=F
 Integral buffers will be    131072 words long.
 Raffenetti 2 integral format.
 Two-electron integral symmetry is turned on.
 ------------------------------------------------------------------------------
 Polarizable Continuum Model (PCM)
 =================================
 Model                : PCM.
 Atomic radii         : SMD-Coulomb.
 Polarization charges : Total charges.
 Charge compensation  : None.
 Solution method      : On-the-fly selection.
 Cavity type          : VdW (van der Waals Surface) (Alpha=1.000).
 Cavity algorithm     : GePol (No added spheres)
                        Default sphere list used, NSphG=   11.
                        Lebedev-Laikov grids with approx.  5.0 points / Ang**2.
                        Smoothing algorithm: York/Karplus (Gamma=1.0000).
                        Polarization charges: spherical gaussians, with
                                              point-specific exponents (IZeta= 3).
                        Self-potential: point-specific (ISelfS= 7).
                        Self-field    : sphere-specific E.n sum rule (ISelfD= 2).
 1st derivatives      : Analytical E(r).r(x)/FMM algorithm (CHGder, D1EAlg=3).
                        Cavity 1st derivative terms included.
 Solvent              : Water, Eps=  78.355300 Eps(inf)=   1.777849
 ------------------------------------------------------------------------------
 Spheres list:
 ISph  on   Nord     Re0    Alpha      Xe            Ye            Ze
    1   N      1    1.8900  1.000     -0.563317     -0.851563      0.022055
    2   N      2    1.8900  1.000      0.092591      0.292722      0.032833
    3   C      3    1.8500  1.000     -0.875257      1.205957      0.006099
    4   C      4    1.8500  1.000     -2.110034      0.535750     -0.020228
    5   N      5    1.8900  1.000     -1.876636     -0.775133     -0.009166
    6   H      6    1.2000  1.000     -0.647099      2.260195      0.006901
    7   H      7    1.2000  1.000     -3.116617      0.922394     -0.045566
    8   H      8    1.2000  1.000     -0.069358     -1.734121      0.037820
    9   C      9    1.8500  1.000      1.372736      0.047584      0.004626
   10   O     10    1.5200  1.000      2.381889      0.867004     -0.011637
   11   O     11    1.5200  1.000      1.360604     -1.222804     -0.021136
 ------------------------------------------------------------------------------
 ------------------------------------------------------------------------------
 Atomic radii for non-electrostatic terms: SMD-CDS.
 ------------------------------------------------------------------------------
 Nuclear repulsion after PCM non-electrostatic terms =      372.7095778827 Hartrees.
 One-electron integrals computed using PRISM.
 NBasis=   167 RedAO= T EigKep=  2.01D-05  NBF=   167
 NBsUse=   167 1.00D-06 EigRej= -1.00D+00 NBFU=   167
 ExpMin= 4.38D-02 ExpMax= 5.48D+03 ExpMxC= 8.25D+02 IAcc=3 IRadAn=         5 AccDes= 0.00D+00
 Harris functional with IExCor= 1009 and IRadAn=       5 diagonalized for initial guess.
 HarFok:  IExCor= 1009 AccDes= 0.00D+00 IRadAn=         5 IDoV= 1 UseB2=F ITyADJ=14
 ICtDFT=  3500011 ScaDFX=  1.000000  1.000000  1.000000  1.000000
 FoFCou: FMM=F IPFlag=           0 FMFlag=      100000 FMFlg1=           0
         NFxFlg=           0 DoJE=T BraDBF=F KetDBF=T FulRan=T
         wScrn=  0.000000 ICntrl=       500 IOpCl=  0 I1Cent=   200000004 NGrid=           0
         NMat0=    1 NMatS0=      1 NMatT0=    0 NMatD0=    1 NMtDS0=    0 NMtDT0=    0
 Petite list used in FoFCou.
 Initial guess <Sx>= 0.0000 <Sy>= 0.0000 <Sz>= 0.5000 <S**2>= 0.7500 S= 0.5000
 Keep R1 and R2 ints in memory in canonical form, NReq=220618657.
 Requested convergence on RMS density matrix=1.00D-08 within 128 cycles.
 Requested convergence on MAX density matrix=1.00D-06.
 Requested convergence on             energy=1.00D-06.
 No special actions if energy rises.
 Inv3:  Mode=1 IEnd=     2928432.
 Iteration    1 A*A^-1 deviation from unit magnitude is 2.89D-15 for     35.
 Iteration    1 A*A^-1 deviation from orthogonality  is 3.16D-15 for    473    223.
 Iteration    1 A^-1*A deviation from unit magnitude is 2.89D-15 for     35.
 Iteration    1 A^-1*A deviation from orthogonality  is 1.45D-13 for    823    520.
 Error on total polarization charges =  0.05523
 SCF Done:  E(UM062X) =  -430.674168055     A.U. after   18 cycles
            NFock= 18  Conv=0.36D-08     -V/T= 2.0060
 <Sx>= 0.0000 <Sy>= 0.0000 <Sz>= 0.5000 <S**2>= 0.7643 S= 0.5071
 <L.S>=  0.00000000000    
 SMD-CDS (non-electrostatic) energy       (kcal/mol) =       4.09
 (included in total energy above)
 Annihilation of the first spin contaminant:
 S**2 before annihilation     0.7643,   after     0.7501

 **********************************************************************

            Population analysis using the SCF density.

 **********************************************************************

 Orbital symmetries:
 Alpha Orbitals:
       Occupied  (A) (A) (A) (A) (A) (A) (A) (A) (A) (A) (A) (A)
                 (A) (A) (A) (A) (A) (A) (A) (A) (A) (A) (A) (A)
                 (A) (A) (A) (A) (A) (A)
       Virtual   (A) (A) (A) (A) (A) (A) (A) (A) (A) (A) (A) (A)
                 (A) (A) (A) (A) (A) (A) (A) (A) (A) (A) (A) (A)
                 (A) (A) (A) (A) (A) (A) (A) (A) (A) (A) (A) (A)
                 (A) (A) (A) (A) (A) (A) (A) (A) (A) (A) (A) (A)
                 (A) (A) (A) (A) (A) (A) (A) (A) (A) (A) (A) (A)
                 (A) (A) (A) (A) (A) (A) (A) (A) (A) (A) (A) (A)
                 (A) (A) (A) (A) (A) (A) (A) (A) (A) (A) (A) (A)
                 (A) (A) (A) (A) (A) (A) (A) (A) (A) (A) (A) (A)
                 (A) (A) (A) (A) (A) (A) (A) (A) (A) (A) (A) (A)
                 (A) (A) (A) (A) (A) (A) (A) (A) (A) (A) (A) (A)
                 (A) (A) (A) (A) (A) (A) (A) (A) (A) (A) (A) (A)
                 (A) (A) (A) (A) (A)
 Beta  Orbitals:
       Occupied  (A) (A) (A) (A) (A) (A) (A) (A) (A) (A) (A) (A)
                 (A) (A) (A) (A) (A) (A) (A) (A) (A) (A) (A) (A)
                 (A) (A) (A) (A) (A)
       Virtual   (A) (A) (A) (A) (A) (A) (A) (A) (A) (A) (A) (A)
                 (A) (A) (A) (A) (A) (A) (A) (A) (A) (A) (A) (A)
                 (A) (A) (A) (A) (A) (A) (A) (A) (A) (A) (A) (A)
                 (A) (A) (A) (A) (A) (A) (A) (A) (A) (A) (A) (A)
                 (A) (A) (A) (A) (A) (A) (A) (A) (A) (A) (A) (A)
                 (A) (A) (A) (A) (A) (A) (A) (A) (A) (A) (A) (A)
                 (A) (A) (A) (A) (A) (A) (A) (A) (A) (A) (A) (A)
                 (A) (A) (A) (A) (A) (A) (A) (A) (A) (A) (A) (A)
                 (A) (A) (A) (A) (A) (A) (A) (A) (A) (A) (A) (A)
                 (A) (A) (A) (A) (A) (A) (A) (A) (A) (A) (A) (A)
                 (A) (A) (A) (A) (A) (A) (A) (A) (A) (A) (A) (A)
                 (A) (A) (A) (A) (A) (A)
 The electronic state is 2-A.
 Alpha  occ. eigenvalues --  -19.60846 -19.58357 -14.84868 -14.82259 -14.78007
 Alpha  occ. eigenvalues --  -10.67379 -10.57480 -10.57266  -1.27851  -1.16027
 Alpha  occ. eigenvalues --   -1.08009  -1.03207  -0.91645  -0.80869  -0.72095
 Alpha  occ. eigenvalues --   -0.70098  -0.60835  -0.60593  -0.53540  -0.52337
 Alpha  occ. eigenvalues --   -0.50405  -0.48641  -0.47857  -0.38459  -0.38291
 Alpha  occ. eigenvalues --   -0.36306  -0.35858  -0.32417  -0.31581  -0.16646
 Alpha virt. eigenvalues --    0.02702   0.04214   0.05228   0.05458   0.06092
 Alpha virt. eigenvalues --    0.06409   0.07313   0.08464   0.10683   0.11330
 Alpha virt. eigenvalues --    0.11402   0.12455   0.13975   0.15289   0.17284
 Alpha virt. eigenvalues --    0.18109   0.18869   0.21422   0.22139   0.22586
 Alpha virt. eigenvalues --    0.22825   0.24146   0.24834   0.25756   0.26343
 Alpha virt. eigenvalues --    0.27829   0.28676   0.28930   0.30146   0.30276
 Alpha virt. eigenvalues --    0.31635   0.32406   0.33942   0.34779   0.35254
 Alpha virt. eigenvalues --    0.36229   0.36763   0.40746   0.41561   0.46636
 Alpha virt. eigenvalues --    0.48658   0.50240   0.50853   0.56022   0.68700
 Alpha virt. eigenvalues --    0.73367   0.76695   0.78863   0.82575   0.84462
 Alpha virt. eigenvalues --    0.85958   0.88344   0.93205   0.94267   0.95031
 Alpha virt. eigenvalues --    0.97222   0.99644   0.99884   1.01567   1.02126
 Alpha virt. eigenvalues --    1.06933   1.10791   1.15363   1.19257   1.21264
 Alpha virt. eigenvalues --    1.23473   1.28276   1.29008   1.31038   1.32416
 Alpha virt. eigenvalues --    1.33804   1.35569   1.35746   1.37780   1.41075
 Alpha virt. eigenvalues --    1.42536   1.43773   1.48472   1.51816   1.52722
 Alpha virt. eigenvalues --    1.55393   1.61348   1.66340   1.72551   1.75174
 Alpha virt. eigenvalues --    1.78013   1.83652   1.85950   1.87417   1.89951
 Alpha virt. eigenvalues --    1.93006   1.99176   1.99617   2.00498   2.06327
 Alpha virt. eigenvalues --    2.11179   2.12012   2.19921   2.22654   2.24057
 Alpha virt. eigenvalues --    2.28120   2.30748   2.34911   2.38529   2.42178
 Alpha virt. eigenvalues --    2.44068   2.48876   2.54029   2.54945   2.59411
 Alpha virt. eigenvalues --    2.59959   2.66444   2.72501   2.76978   2.78860
 Alpha virt. eigenvalues --    2.81910   2.87801   2.88995   2.91113   2.94104
 Alpha virt. eigenvalues --    3.01351   3.13212   3.15753   3.21413   3.30572
 Alpha virt. eigenvalues --    3.33934   3.53250   3.64774   3.79869   4.09914
 Alpha virt. eigenvalues --    4.27456   4.34783   4.34944   4.47955   4.63626
 Alpha virt. eigenvalues --    4.76629   4.83842
  Beta  occ. eigenvalues --  -19.60669 -19.58295 -14.84721 -14.81802 -14.77612
  Beta  occ. eigenvalues --  -10.67282 -10.57395 -10.57223  -1.26924  -1.15370
  Beta  occ. eigenvalues --   -1.07472  -1.02253  -0.90708  -0.79637  -0.71640
  Beta  occ. eigenvalues --   -0.69456  -0.60160  -0.58433  -0.53084  -0.51933
  Beta  occ. eigenvalues --   -0.50025  -0.47458  -0.46580  -0.37274  -0.35577
  Beta  occ. eigenvalues --   -0.35410  -0.34114  -0.31430  -0.29991
  Beta virt. eigenvalues --   -0.00691   0.02368   0.04133   0.04864   0.05220
  Beta virt. eigenvalues --    0.06319   0.07113   0.07456   0.08269   0.10024
  Beta virt. eigenvalues --    0.10976   0.12077   0.12284   0.13948   0.16188
  Beta virt. eigenvalues --    0.16709   0.18554   0.18694   0.21499   0.21991
  Beta virt. eigenvalues --    0.22032   0.22765   0.23990   0.25048   0.25665
  Beta virt. eigenvalues --    0.26246   0.28011   0.28221   0.28989   0.30066
  Beta virt. eigenvalues --    0.30323   0.31704   0.32245   0.33603   0.34671
  Beta virt. eigenvalues --    0.35561   0.36099   0.36999   0.40641   0.41429
  Beta virt. eigenvalues --    0.46749   0.48670   0.50742   0.51061   0.56330
  Beta virt. eigenvalues --    0.68964   0.73061   0.78121   0.79038   0.83195
  Beta virt. eigenvalues --    0.84596   0.86313   0.88449   0.93578   0.95387
  Beta virt. eigenvalues --    0.95931   0.97267   0.99768   1.01310   1.02260
  Beta virt. eigenvalues --    1.03352   1.07216   1.10950   1.15548   1.18997
  Beta virt. eigenvalues --    1.21506   1.24490   1.28737   1.29738   1.31409
  Beta virt. eigenvalues --    1.32684   1.34607   1.36023   1.36528   1.37881
  Beta virt. eigenvalues --    1.41817   1.42722   1.43938   1.49013   1.52256
  Beta virt. eigenvalues --    1.53653   1.56421   1.62077   1.66643   1.72788
  Beta virt. eigenvalues --    1.75421   1.78192   1.84186   1.86242   1.87773
  Beta virt. eigenvalues --    1.90248   1.93253   1.99432   2.00122   2.00769
  Beta virt. eigenvalues --    2.06690   2.11595   2.12729   2.20312   2.23328
  Beta virt. eigenvalues --    2.24985   2.28466   2.31293   2.35377   2.39430
  Beta virt. eigenvalues --    2.42666   2.44772   2.49365   2.54583   2.55317
  Beta virt. eigenvalues --    2.60018   2.60552   2.66916   2.72993   2.77797
  Beta virt. eigenvalues --    2.79343   2.82486   2.88153   2.90051   2.91712
  Beta virt. eigenvalues --    2.94481   3.01791   3.13585   3.16139   3.21735
  Beta virt. eigenvalues --    3.31111   3.34301   3.53706   3.65480   3.80509
  Beta virt. eigenvalues --    4.10099   4.27512   4.34928   4.35405   4.47866
  Beta virt. eigenvalues --    4.64650   4.76768   4.84858
          Condensed to atoms (all electrons):
               1          2          3          4          5          6
     1  N    8.295021  -0.038970  -0.253024   0.244085  -1.151138   0.018748
     2  N   -0.038970   7.328376   0.043635   0.022080  -0.030682  -0.048779
     3  C   -0.253024   0.043635   5.936380   0.087091   0.185569   0.403362
     4  C    0.244085   0.022080   0.087091   5.414168   0.020902  -0.025399
     5  N   -1.151138  -0.030682   0.185569   0.020902   8.376374   0.000498
     6  H    0.018748  -0.048779   0.403362  -0.025399   0.000498   0.430326
     7  H    0.006711  -0.015599  -0.000010   0.380933  -0.038372   0.000516
     8  H    0.337442   0.004683   0.006835   0.007894  -0.021033  -0.000055
     9  C   -0.077659   0.223098  -0.153454   0.016906  -0.096923  -0.005231
    10  O    0.029635  -0.123846  -0.035563   0.009320   0.004605  -0.000605
    11  O   -0.074947  -0.256679   0.034222  -0.022050   0.053718  -0.000892
               7          8          9         10         11
     1  N    0.006711   0.337442  -0.077659   0.029635  -0.074947
     2  N   -0.015599   0.004683   0.223098  -0.123846  -0.256679
     3  C   -0.000010   0.006835  -0.153454  -0.035563   0.034222
     4  C    0.380933   0.007894   0.016906   0.009320  -0.022050
     5  N   -0.038372  -0.021033  -0.096923   0.004605   0.053718
     6  H    0.000516  -0.000055  -0.005231  -0.000605  -0.000892
     7  H    0.452544  -0.000051  -0.001367  -0.000021   0.000112
     8  H   -0.000051   0.273795  -0.017450  -0.000224  -0.031355
     9  C   -0.001367  -0.017450   4.550343   0.361156   0.335432
    10  O   -0.000021  -0.000224   0.361156   8.729561  -0.122136
    11  O    0.000112  -0.031355   0.335432  -0.122136   8.821762
          Atomic-Atomic Spin Densities.
               1          2          3          4          5          6
     1  N    0.530061  -0.208154   0.158020  -0.024129  -0.211207  -0.001610
     2  N   -0.208154   0.290083  -0.207941   0.004035   0.093953   0.002696
     3  C    0.158020  -0.207941   0.543544   0.005988  -0.123443  -0.005809
     4  C   -0.024129   0.004035   0.005988  -0.191706   0.040239   0.002634
     5  N   -0.211207   0.093953  -0.123443   0.040239   0.505784   0.000309
     6  H   -0.001610   0.002696  -0.005809   0.002634   0.000309  -0.014407
     7  H    0.002548  -0.000776  -0.001037   0.003339  -0.003071  -0.000002
     8  H    0.001295  -0.001765   0.000232  -0.000092  -0.005757   0.000003
     9  C   -0.051632   0.117385  -0.034765   0.001194   0.015952   0.001037
    10  O    0.009509  -0.028145   0.013321  -0.000710  -0.001407   0.000162
    11  O    0.035748  -0.037841   0.014073  -0.004017   0.004831   0.000138
               7          8          9         10         11
     1  N    0.002548   0.001295  -0.051632   0.009509   0.035748
     2  N   -0.000776  -0.001765   0.117385  -0.028145  -0.037841
     3  C   -0.001037   0.000232  -0.034765   0.013321   0.014073
     4  C    0.003339  -0.000092   0.001194  -0.000710  -0.004017
     5  N   -0.003071  -0.005757   0.015952  -0.001407   0.004831
     6  H   -0.000002   0.000003   0.001037   0.000162   0.000138
     7  H    0.003424   0.000001  -0.000061   0.000001  -0.000005
     8  H    0.000001  -0.011780  -0.000181   0.000136   0.006334
     9  C   -0.000061  -0.000181   0.186442  -0.060813  -0.051283
    10  O    0.000001   0.000136  -0.060813   0.130657   0.012651
    11  O   -0.000005   0.006334  -0.051283   0.012651   0.063675
 Mulliken charges and spin densities:
               1          2
     1  N   -0.335903   0.240450
     2  N   -0.107318   0.023530
     3  C   -0.255044   0.362184
     4  C   -0.155931  -0.163224
     5  N   -0.303519   0.316183
     6  H    0.227509  -0.014849
     7  H    0.214603   0.004361
     8  H    0.439519  -0.011574
     9  C    0.865149   0.123274
    10  O   -0.851879   0.075363
    11  O   -0.737187   0.044303
 Sum of Mulliken charges =  -1.00000   1.00000
 Mulliken charges and spin densities with hydrogens summed into heavy atoms:
               1          2
     1  N    0.103616   0.228876
     2  N   -0.107318   0.023530
     3  C   -0.027535   0.347335
     4  C    0.058673  -0.158863
     5  N   -0.303519   0.316183
     9  C    0.865149   0.123274
    10  O   -0.851879   0.075363
    11  O   -0.737187   0.044303
 Electronic spatial extent (au):  <R**2>=            800.4604
 Charge=             -1.0000 electrons
 Dipole moment (field-independent basis, Debye):
    X=             -8.6012    Y=              2.1260    Z=              0.1746  Tot=              8.8617
 Quadrupole moment (field-independent basis, Debye-Ang):
   XX=            -76.0232   YY=            -52.1270   ZZ=            -49.3752
   XY=             -7.1317   XZ=              0.3490   YZ=             -0.2342
 Traceless Quadrupole moment (field-independent basis, Debye-Ang):
   XX=            -16.8480   YY=              7.0481   ZZ=              9.7999
   XY=             -7.1317   XZ=              0.3490   YZ=             -0.2342
 Octapole moment (field-independent basis, Debye-Ang**2):
  XXX=            -58.8924  YYY=              2.1239  ZZZ=              0.1942  XYY=            -12.1489
  XXY=              6.3586  XXZ=              0.2098  XZZ=              4.2108  YZZ=             -2.2543
  YYZ=              0.4227  XYZ=              0.0914
 Hexadecapole moment (field-independent basis, Debye-Ang**3):
 XXXX=           -873.4550 YYYY=           -257.6642 ZZZZ=            -53.6873 XXXY=            -71.2765
 XXXZ=              2.3209 YYYX=             -7.6575 YYYZ=             -0.6289 ZZZX=              0.0099
 ZZZY=             -0.1068 XXYY=           -214.9084 XXZZ=           -142.7016 YYZZ=            -60.8945
 XXYZ=             -0.7114 YYXZ=              0.3802 ZZXY=              1.3221
 N-N= 3.727095778827D+02 E-N=-1.764409403351D+03  KE= 4.280895858642D+02
                          Isotropic Fermi Contact Couplings
        Atom                 a.u.       MegaHertz       Gauss      10(-4) cm-1
     1  N(14)              0.06090      19.67816       7.02166       6.56393
     2  N(14)              0.00027       0.08742       0.03119       0.02916
     3  C(13)              0.04750      53.39371      19.05220      17.81022
     4  C(13)             -0.03327     -37.40694     -13.34773     -12.47761
     5  N(14)              0.07276      23.50815       8.38829       7.84147
     6  H(1)              -0.00495     -22.12968      -7.89642      -7.38167
     7  H(1)               0.00119       5.29687       1.89006       1.76685
     8  H(1)              -0.00637     -28.49285     -10.16696      -9.50419
     9  C(13)              0.02082      23.40670       8.35209       7.80764
    10  O(17)              0.02096     -12.70317      -4.53281      -4.23732
    11  O(17)              0.00298      -1.80573      -0.64433      -0.60233
 --------------------------------------------------------
       Center         ----  Spin Dipole Couplings  ----
                      3XX-RR        3YY-RR        3ZZ-RR
 --------------------------------------------------------
     1   Atom       -0.319557     -0.321810      0.641366
     2   Atom       -0.126187     -0.149548      0.275735
     3   Atom       -0.158251     -0.143676      0.301927
     4   Atom        0.053277      0.067172     -0.120449
     5   Atom       -0.321478     -0.314851      0.636329
     6   Atom       -0.021872      0.024596     -0.002724
     7   Atom       -0.000660      0.006780     -0.006119
     8   Atom       -0.014195      0.021770     -0.007575
     9   Atom       -0.068513     -0.095591      0.164104
    10   Atom       -0.170188     -0.164151      0.334339
    11   Atom       -0.068210     -0.082291      0.150501
 --------------------------------------------------------
                        XY            XZ            YZ
 --------------------------------------------------------
     1   Atom        0.000933     -0.028784      0.011738
     2   Atom        0.000397     -0.002114      0.004356
     3   Atom       -0.000615     -0.010965      0.002907
     4   Atom       -0.003146      0.004192     -0.000874
     5   Atom        0.001008     -0.024891      0.005809
     6   Atom        0.008683     -0.000679     -0.000035
     7   Atom        0.000007      0.000107     -0.000022
     8   Atom       -0.027578      0.000628     -0.001693
     9   Atom        0.001390      0.015209     -0.007901
    10   Atom       -0.008413      0.017095     -0.012612
    11   Atom       -0.007403     -0.000723     -0.011201
 --------------------------------------------------------


 ---------------------------------------------------------------------------------
              Anisotropic Spin Dipole Couplings in Principal Axis System
 ---------------------------------------------------------------------------------

       Atom             a.u.   MegaHertz   Gauss  10(-4) cm-1        Axes

              Baa    -0.3227   -12.445    -4.441    -4.151 -0.4930  0.8697 -0.0253
     1 N(14)  Bbb    -0.3197   -12.330    -4.400    -4.113  0.8695  0.4935  0.0200
              Bcc     0.6424    24.775     8.840     8.264 -0.0299  0.0121  0.9995
 
              Baa    -0.1496    -5.770    -2.059    -1.925 -0.0179  0.9998 -0.0103
     2 N(14)  Bbb    -0.1262    -4.867    -1.737    -1.623  0.9998  0.0180  0.0051
              Bcc     0.2758    10.637     3.795     3.548 -0.0052  0.0102  0.9999
 
              Baa    -0.1585   -21.274    -7.591    -7.096  0.9990  0.0368  0.0236
     3 C(13)  Bbb    -0.1437   -19.280    -6.880    -6.431 -0.0366  0.9993 -0.0074
              Bcc     0.3022    40.553    14.470    13.527 -0.0238  0.0066  0.9997
 
              Baa    -0.1206   -16.177    -5.772    -5.396 -0.0240  0.0042  0.9997
     4 C(13)  Bbb     0.0527     7.070     2.523     2.358  0.9767  0.2135  0.0226
              Bcc     0.0679     9.107     3.250     3.038 -0.2133  0.9769 -0.0093
 
              Baa    -0.3223   -12.431    -4.436    -4.146  0.9877 -0.1543  0.0266
     5 N(14)  Bbb    -0.3147   -12.137    -4.331    -4.049  0.1544  0.9880 -0.0020
              Bcc     0.6370    24.568     8.766     8.195 -0.0260  0.0061  0.9996
 
              Baa    -0.0235   -12.519    -4.467    -4.176  0.9836 -0.1777  0.0319
     6 H(1)   Bbb    -0.0027    -1.442    -0.515    -0.481 -0.0305  0.0110  0.9995
              Bcc     0.0262    13.961     4.982     4.657  0.1779  0.9840 -0.0054
 
              Baa    -0.0061    -3.266    -1.165    -1.089 -0.0196  0.0017  0.9998
     7 H(1)   Bbb    -0.0007    -0.351    -0.125    -0.117  0.9998 -0.0009  0.0196
              Bcc     0.0068     3.617     1.291     1.207  0.0009  1.0000 -0.0017
 
              Baa    -0.0291   -15.547    -5.547    -5.186  0.8790  0.4766  0.0118
     8 H(1)   Bbb    -0.0076    -4.079    -1.455    -1.360 -0.0296  0.0298  0.9991
              Bcc     0.0368    19.625     7.003     6.546 -0.4758  0.8786 -0.0403
 
              Baa    -0.0960   -12.877    -4.595    -4.295 -0.0695  0.9970  0.0344
     9 C(13)  Bbb    -0.0694    -9.308    -3.321    -3.105  0.9955  0.0716 -0.0624
              Bcc     0.1653    22.185     7.916     7.400  0.0647 -0.0299  0.9975
 
              Baa    -0.1762    12.750     4.549     4.253  0.8266  0.5627 -0.0138
    10 O(17)  Bbb    -0.1591    11.509     4.107     3.839 -0.5618  0.8263  0.0406
              Bcc     0.3353   -24.258    -8.656    -8.092  0.0342 -0.0258  0.9991
 
              Baa    -0.0859     6.219     2.219     2.074  0.3865  0.9212  0.0448
    11 O(17)  Bbb    -0.0651     4.710     1.681     1.571  0.9223 -0.3861 -0.0170
              Bcc     0.1510   -10.929    -3.900    -3.646 -0.0017 -0.0479  0.9989
 

 ---------------------------------------------------------------------------------

 D1PCM: PCM CHGder 1st derivatives, ID1Alg=3 FixD1E=F DoIter=F DoCFld=F I1PDM=0.
 Calling FoFJK, ICntrl=      2127 FMM=F ISym2X=0 I1Cent= 0 IOpClX= 1 NMat=1 NMatS=1 NMatT=0.
 ***** Axes restored to original set *****
 -------------------------------------------------------------------
 Center     Atomic                   Forces (Hartrees/Bohr)
 Number     Number              X              Y              Z
 -------------------------------------------------------------------
      1        7          -0.085447196   -0.088731679    0.004121382
      2        7          -0.058289642    0.024163742    0.004345243
      3        6          -0.057102038    0.058057155    0.000403797
      4        6           0.015432174    0.017963038    0.000051191
      5        7          -0.023308949    0.006050638    0.001116475
      6        1          -0.001253163    0.000069417   -0.000051874
      7        1           0.000363730    0.004963058   -0.000105521
      8        1          -0.008487817    0.007704894    0.000637036
      9        6           0.093146733    0.001628741   -0.006432592
     10        8          -0.037114788   -0.019193715    0.002260380
     11        8           0.162060956   -0.012675290   -0.006345516
 -------------------------------------------------------------------
 Cartesian Forces:  Max     0.162060956 RMS     0.044059054

 GradGradGradGradGradGradGradGradGradGradGradGradGradGradGradGradGradGrad
 Berny optimization.
 FormGI is forming the generalized inverse of G from B-inverse, IUseBI=4.
 Internal  Forces:  Max     0.266199417 RMS     0.072425549
 Search for a local minimum.
 Step number   1 out of a maximum of   57
 All quantities printed in internal units (Hartrees-Bohrs-Radians)
 Mixed Optimization -- RFO/linear search
 Second derivative matrix not updated -- first step.
 ITU=  0
     Eigenvalues ---    0.02156   0.02281   0.02347   0.02381   0.02474
     Eigenvalues ---    0.02710   0.02966   0.02967   0.16000   0.16000
     Eigenvalues ---    0.16000   0.22694   0.23395   0.24883   0.25000
     Eigenvalues ---    0.25000   0.36159   0.36166   0.41437   0.45721
     Eigenvalues ---    0.52785   0.56354   0.59881   0.62006   0.66173
     Eigenvalues ---    0.67182   0.76032
 RFO step:  Lambda=-3.59383408D-01 EMin= 2.15630336D-02
 Linear search not attempted -- first point.
 Maximum step size (   0.300) exceeded in Quadratic search.
    -- Step size scaled by   0.407
 Iteration  1 RMS(Cart)=  0.12998643 RMS(Int)=  0.01096573
 Iteration  2 RMS(Cart)=  0.01449571 RMS(Int)=  0.00015054
 Iteration  3 RMS(Cart)=  0.00019729 RMS(Int)=  0.00008820
 Iteration  4 RMS(Cart)=  0.00000005 RMS(Int)=  0.00008820
 Variable       Old X    -DE/DX   Delta X   Delta X   Delta X     New X
                                 (Linear)    (Quad)   (Total)
    R1        2.49252   0.10681   0.00000   0.04678   0.04685   2.53937
    R2        2.48671   0.02391   0.00000   0.01073   0.01074   2.49746
    R3        1.91148  -0.01129   0.00000  -0.00563  -0.00563   1.90585
    R4        2.51514   0.07580   0.00000   0.03323   0.03326   2.54841
    R5        2.46365   0.21945   0.00000   0.08745   0.08745   2.55111
    R6        2.65541  -0.02370   0.00000  -0.01437  -0.01442   2.64100
    R7        2.03834  -0.00001   0.00000  -0.00000  -0.00000   2.03834
    R8        2.51625   0.00723   0.00000   0.00097   0.00090   2.51716
    R9        2.03823   0.00073   0.00000   0.00041   0.00041   2.03864
   R10        2.45672  -0.03929   0.00000  -0.01551  -0.01551   2.44121
   R11        2.40129   0.03473   0.00000   0.01262   0.01262   2.41391
    A1        2.03321  -0.01535   0.00000  -0.00623  -0.00616   2.02705
    A2        2.11061   0.00962   0.00000   0.00464   0.00461   2.11522
    A3        2.13936   0.00573   0.00000   0.00159   0.00156   2.14092
    A4        1.80646  -0.03865   0.00000  -0.02075  -0.02063   1.78583
    A5        1.90180   0.20075   0.00000   0.13176   0.13173   2.03353
    A6        2.57293  -0.16237   0.00000  -0.11114  -0.11119   2.46173
    A7        1.88821   0.02180   0.00000   0.01382   0.01381   1.90202
    A8        2.11390  -0.00965   0.00000  -0.00593  -0.00592   2.10798
    A9        2.28108  -0.01216   0.00000  -0.00789  -0.00789   2.27319
   A10        1.89164   0.01538   0.00000   0.00478   0.00468   1.89633
   A11        2.27777  -0.01274   0.00000  -0.00635  -0.00630   2.27147
   A12        2.11377  -0.00264   0.00000   0.00156   0.00162   2.11539
   A13        1.80525   0.01681   0.00000   0.00838   0.00830   1.81356
   A14        2.27047  -0.15073   0.00000  -0.10065  -0.10065   2.16982
   A15        1.75081   0.26620   0.00000   0.17777   0.17777   1.92858
   A16        2.26179  -0.11541   0.00000  -0.07706  -0.07707   2.18472
    D1       -0.00018  -0.00138   0.00000  -0.00079  -0.00068  -0.00086
    D2       -3.09346   0.00942   0.00000   0.00599   0.00579  -3.08767
    D3       -3.14115  -0.00306   0.00000  -0.00170  -0.00159   3.14045
    D4        0.04876   0.00774   0.00000   0.00507   0.00488   0.05364
    D5        0.00018   0.00185   0.00000   0.00128   0.00121   0.00139
    D6        3.14113   0.00356   0.00000   0.00221   0.00214  -3.13992
    D7        0.00011   0.00031   0.00000  -0.00004  -0.00013  -0.00002
    D8       -3.14136  -0.00173   0.00000  -0.00145  -0.00152   3.14030
    D9        3.05678   0.00880   0.00000   0.00669   0.00677   3.06355
   D10       -0.08468   0.00676   0.00000   0.00528   0.00538  -0.07931
   D11        3.12737   0.00240   0.00000   0.00279   0.00259   3.12996
   D12        0.00059  -0.00130   0.00000  -0.00108  -0.00128  -0.00069
   D13        0.07309   0.00052   0.00000   0.00027   0.00047   0.07356
   D14       -3.05369  -0.00317   0.00000  -0.00360  -0.00340  -3.05708
   D15       -0.00001   0.00076   0.00000   0.00080   0.00086   0.00085
   D16        3.14150  -0.00102   0.00000  -0.00065  -0.00062   3.14087
   D17        3.14144   0.00307   0.00000   0.00240   0.00242  -3.13932
   D18       -0.00024   0.00129   0.00000   0.00095   0.00094   0.00070
   D19       -0.00009  -0.00148   0.00000  -0.00118  -0.00119  -0.00128
   D20        3.14158   0.00010   0.00000   0.00010   0.00013  -3.14147
         Item               Value     Threshold  Converged?
 Maximum Force            0.266199     0.000450     NO 
 RMS     Force            0.072426     0.000300     NO 
 Maximum Displacement     0.662830     0.001800     NO 
 RMS     Displacement     0.138060     0.001200     NO 
 Predicted change in Energy=-1.326900D-01
 GradGradGradGradGradGradGradGradGradGradGradGradGradGradGradGradGradGrad

                          Input orientation:                          
 ---------------------------------------------------------------------
 Center     Atomic      Atomic             Coordinates (Angstroms)
 Number     Number       Type             X           Y           Z
 ---------------------------------------------------------------------
      1          7           0       -0.925378   -0.881697    0.005766
      2          7           0       -0.356806    0.335862    0.002092
      3          6           0       -1.428807    1.154039   -0.001306
      4          6           0       -2.591907    0.379213    0.000487
      5          7           0       -2.246726   -0.907294    0.006028
      6          1           0       -1.305323    2.225587   -0.003586
      7          1           0       -3.627960    0.679896   -0.000589
      8          1           0       -0.364697   -1.720011    0.007917
      9          6           0        0.991131    0.371310   -0.063312
     10          8           0        1.690854    1.456939   -0.088470
     11          8           0        1.468055   -0.812805   -0.109427
 ---------------------------------------------------------------------
                    Distance matrix (angstroms):
                    1          2          3          4          5
     1  N    0.000000
     2  N    1.343777   0.000000
     3  C    2.097072   1.348559   0.000000
     4  C    2.089795   2.235522   1.397555   0.000000
     5  N    1.321597   2.262134   2.217688   1.332022   0.000000
     6  H    3.130441   2.114422   1.078642   2.250425   3.271281
     7  H    3.121309   3.289197   2.249686   1.078804   2.104049
     8  H    1.008532   2.055896   3.064731   3.060598   2.050011
     9  C    2.290808   1.349988   2.544132   3.583614   3.481861
    10  O    3.510380   2.336221   3.135543   4.417176   4.593808
    11  O    2.397193   2.159164   3.503138   4.232763   3.717776
                    6          7          8          9         10
     6  H    0.000000
     7  H    2.789948   0.000000
     8  H    4.056187   4.050742   0.000000
     9  C    2.952221   4.629812   2.493385   0.000000
    10  O    3.094367   5.375993   3.785180   1.291834   0.000000
    11  O    4.115174   5.311250   2.048358   1.277385   2.280749
                   11
    11  O    0.000000
 Stoichiometry    C3H3N3O2(1-,2)
 Framework group  C1[X(C3H3N3O2)]
 Deg. of freedom    27
 Full point group                 C1      NOp   1
 Largest Abelian subgroup         C1      NOp   1
 Largest concise Abelian subgroup C1      NOp   1
                         Standard orientation:                         
 ---------------------------------------------------------------------
 Center     Atomic      Atomic             Coordinates (Angstroms)
 Number     Number       Type             X           Y           Z
 ---------------------------------------------------------------------
      1          7           0       -0.669547   -0.926978    0.025244
      2          7           0        0.065957    0.197599    0.035079
      3          6           0       -0.878668    1.159530    0.003735
      4          6           0       -2.139623    0.557524   -0.023470
      5          7           0       -1.980743   -0.764900   -0.008119
      6          1           0       -0.604360    2.202710    0.003746
      7          1           0       -3.122168    1.002109   -0.051166
      8          1           0       -0.233732   -1.836324    0.042338
      9          6           0        1.406496    0.041214    0.003989
     10          8           0        2.253601    1.016499   -0.004209
     11          8           0        1.711570   -1.198767   -0.029025
 ---------------------------------------------------------------------
 Rotational constants (GHZ):           5.6515851           1.7575061           1.3409792
 Standard basis: 6-31+G(d,p) (6D, 7F)
 There are   167 symmetry adapted cartesian basis functions of A   symmetry.
 There are   167 symmetry adapted basis functions of A   symmetry.
   167 basis functions,   277 primitive gaussians,   167 cartesian basis functions
    30 alpha electrons       29 beta electrons
       nuclear repulsion energy       363.7170599761 Hartrees.
 NAtoms=   11 NActive=   11 NUniq=   11 SFac= 1.00D+00 NAtFMM=   60 NAOKFM=F Big=F
 Integral buffers will be    131072 words long.
 Raffenetti 2 integral format.
 Two-electron integral symmetry is turned on.
 ------------------------------------------------------------------------------
 Polarizable Continuum Model (PCM)
 =================================
 Model                : PCM.
 Atomic radii         : SMD-Coulomb.
 Polarization charges : Total charges.
 Charge compensation  : None.
 Solution method      : On-the-fly selection.
 Cavity type          : VdW (van der Waals Surface) (Alpha=1.000).
 Cavity algorithm     : GePol (No added spheres)
                        Default sphere list used, NSphG=   11.
                        Lebedev-Laikov grids with approx.  5.0 points / Ang**2.
                        Smoothing algorithm: York/Karplus (Gamma=1.0000).
                        Polarization charges: spherical gaussians, with
                                              point-specific exponents (IZeta= 3).
                        Self-potential: point-specific (ISelfS= 7).
                        Self-field    : sphere-specific E.n sum rule (ISelfD= 2).
 1st derivatives      : Analytical E(r).r(x)/FMM algorithm (CHGder, D1EAlg=3).
                        Cavity 1st derivative terms included.
 Solvent              : Water, Eps=  78.355300 Eps(inf)=   1.777849
 ------------------------------------------------------------------------------
 Spheres list:
 ISph  on   Nord     Re0    Alpha      Xe            Ye            Ze
    1   N      1    1.8900  1.000     -0.669547     -0.926978      0.025244
    2   N      2    1.8900  1.000      0.065957      0.197599      0.035079
    3   C      3    1.8500  1.000     -0.878668      1.159530      0.003735
    4   C      4    1.8500  1.000     -2.139623      0.557524     -0.023470
    5   N      5    1.8900  1.000     -1.980743     -0.764900     -0.008119
    6   H      6    1.2000  1.000     -0.604360      2.202710      0.003746
    7   H      7    1.2000  1.000     -3.122168      1.002109     -0.051166
    8   H      8    1.2000  1.000     -0.233732     -1.836324      0.042338
    9   C      9    1.8500  1.000      1.406496      0.041214      0.003989
   10   O     10    1.5200  1.000      2.253601      1.016499     -0.004209
   11   O     11    1.5200  1.000      1.711570     -1.198767     -0.029025
 ------------------------------------------------------------------------------
 ------------------------------------------------------------------------------
 Atomic radii for non-electrostatic terms: SMD-CDS.
 ------------------------------------------------------------------------------
 Nuclear repulsion after PCM non-electrostatic terms =      363.7237089968 Hartrees.
 One-electron integrals computed using PRISM.
 NBasis=   167 RedAO= T EigKep=  2.67D-05  NBF=   167
 NBsUse=   167 1.00D-06 EigRej= -1.00D+00 NBFU=   167
 Initial guess from the checkpoint file:  "/scratch/gongke2021/RC/Gau-9617.chk"
 B after Tr=    -0.000000    0.000000    0.000000
         Rot=    0.999883   -0.001305    0.000566   -0.015206 Ang=  -1.75 deg.
 Initial guess <Sx>= 0.0000 <Sy>= 0.0000 <Sz>= 0.5000 <S**2>= 0.7643 S= 0.5071
 ExpMin= 4.38D-02 ExpMax= 5.48D+03 ExpMxC= 8.25D+02 IAcc=2 IRadAn=         4 AccDes= 0.00D+00
 Harris functional with IExCor= 1009 and IRadAn=       4 diagonalized for initial guess.
 HarFok:  IExCor= 1009 AccDes= 0.00D+00 IRadAn=         4 IDoV= 1 UseB2=F ITyADJ=14
 ICtDFT=  3500011 ScaDFX=  1.000000  1.000000  1.000000  1.000000
 FoFCou: FMM=F IPFlag=           0 FMFlag=      100000 FMFlg1=           0
         NFxFlg=           0 DoJE=T BraDBF=F KetDBF=T FulRan=T
         wScrn=  0.000000 ICntrl=       500 IOpCl=  0 I1Cent=   200000004 NGrid=           0
         NMat0=    1 NMatS0=      1 NMatT0=    0 NMatD0=    1 NMtDS0=    0 NMtDT0=    0
 Petite list used in FoFCou.
 Keep R1 and R2 ints in memory in canonical form, NReq=220618657.
 Requested convergence on RMS density matrix=1.00D-08 within 128 cycles.
 Requested convergence on MAX density matrix=1.00D-06.
 Requested convergence on             energy=1.00D-06.
 No special actions if energy rises.
 Inv3:  Mode=1 IEnd=     3042147.
 Iteration    1 A*A^-1 deviation from unit magnitude is 2.78D-15 for    593.
 Iteration    1 A*A^-1 deviation from orthogonality  is 1.79D-15 for    549    366.
 Iteration    1 A^-1*A deviation from unit magnitude is 3.00D-15 for    593.
 Iteration    1 A^-1*A deviation from orthogonality  is 2.21D-13 for    966    901.
 Error on total polarization charges =  0.05417
 SCF Done:  E(UM062X) =  -430.748480027     A.U. after   18 cycles
            NFock= 18  Conv=0.38D-08     -V/T= 2.0077
 <Sx>= 0.0000 <Sy>= 0.0000 <Sz>= 0.5000 <S**2>= 0.7645 S= 0.5072
 <L.S>=  0.00000000000    
 SMD-CDS (non-electrostatic) energy       (kcal/mol) =       4.17
 (included in total energy above)
 Annihilation of the first spin contaminant:
 S**2 before annihilation     0.7645,   after     0.7501
 D1PCM: PCM CHGder 1st derivatives, ID1Alg=3 FixD1E=F DoIter=F DoCFld=F I1PDM=0.
 Calling FoFJK, ICntrl=      2127 FMM=F ISym2X=0 I1Cent= 0 IOpClX= 1 NMat=1 NMatS=1 NMatT=0.
 ***** Axes restored to original set *****
 -------------------------------------------------------------------
 Center     Atomic                   Forces (Hartrees/Bohr)
 Number     Number              X              Y              Z
 -------------------------------------------------------------------
      1        7           0.004383328   -0.059953324    0.000765917
      2        7          -0.019783296   -0.000668742    0.001872909
      3        6          -0.038778496    0.051854288   -0.000082637
      4        6           0.020880426    0.015923518    0.000256022
      5        7          -0.018533719   -0.006364444    0.000254871
      6        1          -0.000465668    0.000117960   -0.000102915
      7        1           0.000914616    0.003345622   -0.000029473
      8        1           0.004139335    0.002937130   -0.000236495
      9        6           0.063296894    0.002515674   -0.005637793
     10        8          -0.031683159   -0.016382280    0.002101899
     11        8           0.015629740    0.006674598    0.000837694
 -------------------------------------------------------------------
 Cartesian Forces:  Max     0.063296894 RMS     0.021266510

 GradGradGradGradGradGradGradGradGradGradGradGradGradGradGradGradGradGrad
 Berny optimization.
 Using GEDIIS/GDIIS optimizer.
 FormGI is forming the generalized inverse of G from B-inverse, IUseBI=4.
 Internal  Forces:  Max     0.047109932 RMS     0.017852215
 Search for a local minimum.
 Step number   2 out of a maximum of   57
 All quantities printed in internal units (Hartrees-Bohrs-Radians)
 Mixed Optimization -- RFO/linear search
 Update second derivatives using D2CorX and points    1    2
 DE= -7.43D-02 DEPred=-1.33D-01 R= 5.60D-01
 TightC=F SS=  1.41D+00  RLast= 3.00D-01 DXNew= 5.0454D-01 9.0087D-01
 Trust test= 5.60D-01 RLast= 3.00D-01 DXMaxT set to 5.05D-01
 ITU=  1  0
 Use linear search instead of GDIIS.
 Linear search step of   0.560 exceeds DXMaxT=   0.505 but not scaled.
 Quartic linear search produced a step of  1.86523.
 Iteration  1 RMS(Cart)=  0.18779707 RMS(Int)=  0.03219879
 Iteration  2 RMS(Cart)=  0.07621723 RMS(Int)=  0.00468125
 Iteration  3 RMS(Cart)=  0.00511336 RMS(Int)=  0.00043163
 Iteration  4 RMS(Cart)=  0.00002117 RMS(Int)=  0.00043138
 Iteration  5 RMS(Cart)=  0.00000000 RMS(Int)=  0.00043138
 Variable       Old X    -DE/DX   Delta X   Delta X   Delta X     New X
                                 (Linear)    (Quad)   (Total)
    R1        2.53937   0.03930   0.08739   0.00000   0.08775   2.62712
    R2        2.49746   0.01880   0.02004   0.00000   0.02010   2.51756
    R3        1.90585  -0.00013  -0.01050   0.00000  -0.01050   1.89535
    R4        2.54841   0.04141   0.06204   0.00000   0.06221   2.61062
    R5        2.55111   0.04711   0.16312   0.00000   0.16312   2.71423
    R6        2.64100  -0.01547  -0.02689   0.00000  -0.02715   2.61385
    R7        2.03834   0.00005  -0.00001   0.00000  -0.00001   2.03833
    R8        2.51716   0.02429   0.00168   0.00000   0.00135   2.51850
    R9        2.03864   0.00005   0.00077   0.00000   0.00077   2.03942
   R10        2.44121  -0.03095  -0.02892   0.00000  -0.02892   2.41229
   R11        2.41391  -0.00041   0.02354   0.00000   0.02354   2.43745
    A1        2.02705  -0.02371  -0.01150   0.00000  -0.01115   2.01589
    A2        2.11522   0.00699   0.00859   0.00000   0.00842   2.12364
    A3        2.14092   0.01672   0.00290   0.00000   0.00273   2.14364
    A4        1.78583   0.01174  -0.03848   0.00000  -0.03783   1.74801
    A5        2.03353   0.02550   0.24571   0.00000   0.24549   2.27902
    A6        2.46173  -0.03728  -0.20740   0.00000  -0.20765   2.25409
    A7        1.90202  -0.01166   0.02575   0.00000   0.02569   1.92770
    A8        2.10798   0.00635  -0.01104   0.00000  -0.01101   2.09696
    A9        2.27319   0.00531  -0.01471   0.00000  -0.01468   2.25851
   A10        1.89633   0.01673   0.00873   0.00000   0.00820   1.90453
   A11        2.27147  -0.01185  -0.01175   0.00000  -0.01148   2.25999
   A12        2.11539  -0.00488   0.00301   0.00000   0.00328   2.11866
   A13        1.81356   0.00690   0.01549   0.00000   0.01508   1.82864
   A14        2.16982  -0.04269  -0.18774   0.00000  -0.18775   1.98207
   A15        1.92858   0.04185   0.33158   0.00000   0.33156   2.26014
   A16        2.18472   0.00087  -0.14375   0.00000  -0.14376   2.04096
    D1       -0.00086  -0.00038  -0.00126   0.00000  -0.00076  -0.00162
    D2       -3.08767   0.00169   0.01081   0.00000   0.01003  -3.07763
    D3        3.14045  -0.00081  -0.00297   0.00000  -0.00249   3.13796
    D4        0.05364   0.00126   0.00911   0.00000   0.00831   0.06195
    D5        0.00139   0.00035   0.00225   0.00000   0.00193   0.00332
    D6       -3.13992   0.00080   0.00398   0.00000   0.00367  -3.13625
    D7       -0.00002   0.00023  -0.00024   0.00000  -0.00069  -0.00071
    D8        3.14030  -0.00026  -0.00284   0.00000  -0.00319   3.13711
    D9        3.06355   0.00189   0.01262   0.00000   0.01310   3.07665
   D10       -0.07931   0.00139   0.01003   0.00000   0.01060  -0.06871
   D11        3.12996   0.00116   0.00482   0.00000   0.00381   3.13377
   D12       -0.00069  -0.00120  -0.00239   0.00000  -0.00340  -0.00409
   D13        0.07356   0.00022   0.00087   0.00000   0.00189   0.07545
   D14       -3.05708  -0.00214  -0.00634   0.00000  -0.00532  -3.06240
   D15        0.00085  -0.00003   0.00160   0.00000   0.00191   0.00276
   D16        3.14087  -0.00026  -0.00116   0.00000  -0.00102   3.13985
   D17       -3.13932   0.00053   0.00452   0.00000   0.00471  -3.13461
   D18        0.00070   0.00030   0.00176   0.00000   0.00177   0.00248
   D19       -0.00128  -0.00021  -0.00222   0.00000  -0.00225  -0.00354
   D20       -3.14147   0.00000   0.00025   0.00000   0.00041  -3.14106
         Item               Value     Threshold  Converged?
 Maximum Force            0.047110     0.000450     NO 
 RMS     Force            0.017852     0.000300     NO 
 Maximum Displacement     1.056011     0.001800     NO 
 RMS     Displacement     0.251897     0.001200     NO 
 Predicted change in Energy=-1.555583D-01
 GradGradGradGradGradGradGradGradGradGradGradGradGradGradGradGradGradGrad

                          Input orientation:                          
 ---------------------------------------------------------------------
 Center     Atomic      Atomic             Coordinates (Angstroms)
 Number     Number       Type             X           Y           Z
 ---------------------------------------------------------------------
      1          7           0       -1.086017   -1.029816    0.019002
      2          7           0       -0.348236    0.148367    0.003263
      3          6           0       -1.371544    1.076375   -0.007809
      4          6           0       -2.600174    0.441072    0.000441
      5          7           0       -2.409550   -0.877813    0.020095
      6          1           0       -1.146205    2.131170   -0.017362
      7          1           0       -3.592354    0.865648   -0.002994
      8          1           0       -0.642081   -1.929160    0.027086
      9          6           0        1.070154    0.361594   -0.072144
     10          8           0        1.401570    1.594351   -0.072908
     11          8           0        2.026872   -0.500748   -0.141070
 ---------------------------------------------------------------------
                    Distance matrix (angstroms):
                    1          2          3          4          5
     1  N    0.000000
     2  N    1.390210   0.000000
     3  C    2.125626   1.381478   0.000000
     4  C    2.111049   2.270883   1.383188   0.000000
     5  N    1.332234   2.302683   2.212936   1.332734   0.000000
     6  H    3.161768   2.137449   1.078639   2.229524   3.263652
     7  H    3.142451   3.322475   2.230791   1.079212   2.106944
     8  H    1.002978   2.098341   3.092989   3.074547   2.056533
     9  C    2.567762   1.436308   2.544984   3.671906   3.694994
    10  O    3.617013   2.271230   2.821825   4.165259   4.543663
    11  O    3.161584   2.466438   3.748908   4.724045   4.455333
                    6          7          8          9         10
     6  H    0.000000
     7  H    2.754161   0.000000
     8  H    4.091748   4.063985   0.000000
     9  C    2.836662   4.690185   2.861669   0.000000
    10  O    2.604307   5.047294   4.074511   1.276529   0.000000
    11  O    4.124404   5.784618   3.031822   1.289842   2.187484
                   11
    11  O    0.000000
 Stoichiometry    C3H3N3O2(1-,2)
 Framework group  C1[X(C3H3N3O2)]
 Deg. of freedom    27
 Full point group                 C1      NOp   1
 Largest Abelian subgroup         C1      NOp   1
 Largest concise Abelian subgroup C1      NOp   1
                         Standard orientation:                         
 ---------------------------------------------------------------------
 Center     Atomic      Atomic             Coordinates (Angstroms)
 Number     Number       Type             X           Y           Z
 ---------------------------------------------------------------------
      1          7           0       -0.875820   -1.059592    0.028479
      2          7           0        0.033803   -0.008306    0.036774
      3          6           0       -0.834606    1.065426   -0.001282
      4          6           0       -2.145747    0.625762   -0.029767
      5          7           0       -2.159954   -0.706718   -0.007929
      6          1           0       -0.450239    2.073257   -0.001772
      7          1           0       -3.060709    1.197248   -0.060543
      8          1           0       -0.575237   -2.016290    0.047039
      9          6           0        1.469687   -0.014927    0.002516
     10          8           0        1.985832    1.152542    0.014287
     11          8           0        2.284665   -1.013726   -0.041135
 ---------------------------------------------------------------------
 Rotational constants (GHZ):           5.7033836           1.5687865           1.2308265
 Standard basis: 6-31+G(d,p) (6D, 7F)
 There are   167 symmetry adapted cartesian basis functions of A   symmetry.
 There are   167 symmetry adapted basis functions of A   symmetry.
   167 basis functions,   277 primitive gaussians,   167 cartesian basis functions
    30 alpha electrons       29 beta electrons
       nuclear repulsion energy       353.8315823635 Hartrees.
 NAtoms=   11 NActive=   11 NUniq=   11 SFac= 1.00D+00 NAtFMM=   60 NAOKFM=F Big=F
 Integral buffers will be    131072 words long.
 Raffenetti 2 integral format.
 Two-electron integral symmetry is turned on.
 ------------------------------------------------------------------------------
 Polarizable Continuum Model (PCM)
 =================================
 Model                : PCM.
 Atomic radii         : SMD-Coulomb.
 Polarization charges : Total charges.
 Charge compensation  : None.
 Solution method      : On-the-fly selection.
 Cavity type          : VdW (van der Waals Surface) (Alpha=1.000).
 Cavity algorithm     : GePol (No added spheres)
                        Default sphere list used, NSphG=   11.
                        Lebedev-Laikov grids with approx.  5.0 points / Ang**2.
                        Smoothing algorithm: York/Karplus (Gamma=1.0000).
                        Polarization charges: spherical gaussians, with
                                              point-specific exponents (IZeta= 3).
                        Self-potential: point-specific (ISelfS= 7).
                        Self-field    : sphere-specific E.n sum rule (ISelfD= 2).
 1st derivatives      : Analytical E(r).r(x)/FMM algorithm (CHGder, D1EAlg=3).
                        Cavity 1st derivative terms included.
 Solvent              : Water, Eps=  78.355300 Eps(inf)=   1.777849
 ------------------------------------------------------------------------------
 Spheres list:
 ISph  on   Nord     Re0    Alpha      Xe            Ye            Ze
    1   N      1    1.8900  1.000     -0.875820     -1.059592      0.028479
    2   N      2    1.8900  1.000      0.033803     -0.008306      0.036774
    3   C      3    1.8500  1.000     -0.834606      1.065426     -0.001282
    4   C      4    1.8500  1.000     -2.145747      0.625762     -0.029767
    5   N      5    1.8900  1.000     -2.159954     -0.706718     -0.007929
    6   H      6    1.2000  1.000     -0.450239      2.073257     -0.001772
    7   H      7    1.2000  1.000     -3.060709      1.197248     -0.060543
    8   H      8    1.2000  1.000     -0.575237     -2.016290      0.047039
    9   C      9    1.8500  1.000      1.469687     -0.014927      0.002516
   10   O     10    1.5200  1.000      1.985832      1.152542      0.014287
   11   O     11    1.5200  1.000      2.284665     -1.013726     -0.041135
 ------------------------------------------------------------------------------
 ------------------------------------------------------------------------------
 Atomic radii for non-electrostatic terms: SMD-CDS.
 ------------------------------------------------------------------------------
 Nuclear repulsion after PCM non-electrostatic terms =      353.8383571709 Hartrees.
 One-electron integrals computed using PRISM.
 NBasis=   167 RedAO= T EigKep=  2.91D-05  NBF=   167
 NBsUse=   167 1.00D-06 EigRej= -1.00D+00 NBFU=   167
 Initial guess from the checkpoint file:  "/scratch/gongke2021/RC/Gau-9617.chk"
 B after Tr=     0.000000    0.000000    0.000000
         Rot=    0.999827   -0.003270    0.001450   -0.018244 Ang=  -2.13 deg.
 Initial guess <Sx>= 0.0000 <Sy>= 0.0000 <Sz>= 0.5000 <S**2>= 0.7645 S= 0.5072
 ExpMin= 4.38D-02 ExpMax= 5.48D+03 ExpMxC= 8.25D+02 IAcc=2 IRadAn=         4 AccDes= 0.00D+00
 Harris functional with IExCor= 1009 and IRadAn=       4 diagonalized for initial guess.
 HarFok:  IExCor= 1009 AccDes= 0.00D+00 IRadAn=         4 IDoV= 1 UseB2=F ITyADJ=14
 ICtDFT=  3500011 ScaDFX=  1.000000  1.000000  1.000000  1.000000
 FoFCou: FMM=F IPFlag=           0 FMFlag=      100000 FMFlg1=           0
         NFxFlg=           0 DoJE=T BraDBF=F KetDBF=T FulRan=T
         wScrn=  0.000000 ICntrl=       500 IOpCl=  0 I1Cent=   200000004 NGrid=           0
         NMat0=    1 NMatS0=      1 NMatT0=    0 NMatD0=    1 NMtDS0=    0 NMtDT0=    0
 Petite list used in FoFCou.
 Keep R1 and R2 ints in memory in canonical form, NReq=220618657.
 Requested convergence on RMS density matrix=1.00D-08 within 128 cycles.
 Requested convergence on MAX density matrix=1.00D-06.
 Requested convergence on             energy=1.00D-06.
 No special actions if energy rises.
 Inv3:  Mode=1 IEnd=     3213675.
 Iteration    1 A*A^-1 deviation from unit magnitude is 2.89D-15 for    217.
 Iteration    1 A*A^-1 deviation from orthogonality  is 2.62D-15 for    567    419.
 Iteration    1 A^-1*A deviation from unit magnitude is 2.89D-15 for     13.
 Iteration    1 A^-1*A deviation from orthogonality  is 8.45D-15 for    597    556.
 Error on total polarization charges =  0.05343
 SCF Done:  E(UM062X) =  -430.743122407     A.U. after   18 cycles
            NFock= 18  Conv=0.42D-08     -V/T= 2.0087
 <Sx>= 0.0000 <Sy>= 0.0000 <Sz>= 0.5000 <S**2>= 0.7647 S= 0.5073
 <L.S>=  0.00000000000    
 SMD-CDS (non-electrostatic) energy       (kcal/mol) =       4.25
 (included in total energy above)
 Annihilation of the first spin contaminant:
 S**2 before annihilation     0.7647,   after     0.7501
 D1PCM: PCM CHGder 1st derivatives, ID1Alg=3 FixD1E=F DoIter=F DoCFld=F I1PDM=0.
 Calling FoFJK, ICntrl=      2127 FMM=F ISym2X=0 I1Cent= 0 IOpClX= 1 NMat=1 NMatS=1 NMatT=0.
 ***** Axes restored to original set *****
 -------------------------------------------------------------------
 Center     Atomic                   Forces (Hartrees/Bohr)
 Number     Number              X              Y              Z
 -------------------------------------------------------------------
      1        7           0.030308469   -0.024520663   -0.000401797
      2        7           0.002136487   -0.016916446   -0.000766735
      3        6          -0.008787618    0.041525552   -0.000454396
      4        6           0.022353594    0.009877230    0.000487112
      5        7          -0.012062750   -0.013788288   -0.000407242
      6        1           0.000256106   -0.000867393   -0.000201612
      7        1           0.001193454    0.001851547   -0.000009390
      8        1           0.004706413   -0.005595432    0.000083746
      9        6           0.042541487    0.024707150   -0.004035355
     10        8          -0.026495906   -0.000032158    0.001794248
     11        8          -0.056149737   -0.016241099    0.003911421
 -------------------------------------------------------------------
 Cartesian Forces:  Max     0.056149737 RMS     0.018405550

 GradGradGradGradGradGradGradGradGradGradGradGradGradGradGradGradGradGrad
 Berny optimization.
 Using GEDIIS/GDIIS optimizer.
 FormGI is forming the generalized inverse of G from B-inverse, IUseBI=4.
 Internal  Forces:  Max     0.061003996 RMS     0.017334255
 Search for a local minimum.
 Step number   3 out of a maximum of   57
 All quantities printed in internal units (Hartrees-Bohrs-Radians)
 Mixed Optimization -- RFO/linear search
 Update second derivatives using D2CorX and points    1    3    2
 ITU=  0  1  0
 Use linear search instead of GDIIS.
     Eigenvalues ---    0.02160   0.02285   0.02345   0.02381   0.02479
     Eigenvalues ---    0.02681   0.02966   0.02966   0.15937   0.16000
     Eigenvalues ---    0.16002   0.20344   0.22769   0.23430   0.24975
     Eigenvalues ---    0.31999   0.36162   0.36166   0.41350   0.45765
     Eigenvalues ---    0.53006   0.56168   0.58206   0.61858   0.63307
     Eigenvalues ---    0.67431   0.76913
 RFO step:  Lambda=-1.87418882D-02 EMin= 2.16043128D-02
 Quartic linear search produced a step of -0.60986.
 Iteration  1 RMS(Cart)=  0.13372039 RMS(Int)=  0.01338802
 Iteration  2 RMS(Cart)=  0.01741164 RMS(Int)=  0.00033140
 Iteration  3 RMS(Cart)=  0.00031601 RMS(Int)=  0.00023182
 Iteration  4 RMS(Cart)=  0.00000017 RMS(Int)=  0.00023182
 Variable       Old X    -DE/DX   Delta X   Delta X   Delta X     New X
                                 (Linear)    (Quad)   (Total)
    R1        2.62712  -0.00008  -0.05351   0.04057  -0.01283   2.61429
    R2        2.51756   0.00927  -0.01226   0.02520   0.01274   2.53029
    R3        1.89535   0.00709   0.00640   0.00590   0.01230   1.90765
    R4        2.61062   0.00913  -0.03794   0.04689   0.00924   2.61986
    R5        2.71423  -0.03844  -0.09948   0.02110  -0.07838   2.63584
    R6        2.61385  -0.01017   0.01656  -0.03210  -0.01550   2.59834
    R7        2.03833  -0.00078   0.00000  -0.00071  -0.00071   2.03762
    R8        2.51850   0.02607  -0.00082   0.03886   0.03779   2.55629
    R9        2.03942  -0.00036  -0.00047  -0.00033  -0.00080   2.03861
   R10        2.41229  -0.00694   0.01764  -0.03147  -0.01383   2.39846
   R11        2.43745  -0.03098  -0.01436  -0.01543  -0.02979   2.40766
    A1        2.01589  -0.02021   0.00680  -0.07879  -0.07203   1.94386
    A2        2.12364   0.00848  -0.00514   0.01864   0.01352   2.13717
    A3        2.14364   0.01173  -0.00166   0.06015   0.05851   2.20215
    A4        1.74801   0.02993   0.02307   0.08337   0.10682   1.85483
    A5        2.27902  -0.02542  -0.14971  -0.00956  -0.15953   2.11948
    A6        2.25409  -0.00453   0.12664  -0.07378   0.05268   2.30677
    A7        1.92770  -0.02282  -0.01567  -0.07493  -0.09023   1.83748
    A8        2.09696   0.01094   0.00672   0.03785   0.04439   2.14135
    A9        2.25851   0.01188   0.00895   0.03707   0.04584   2.30435
   A10        1.90453   0.01428  -0.00500   0.05551   0.05037   1.95489
   A11        2.25999  -0.00940   0.00700  -0.04311  -0.03604   2.22394
   A12        2.11866  -0.00488  -0.00200  -0.01238  -0.01432   2.10435
   A13        1.82864  -0.00118  -0.00920   0.01485   0.00507   1.83371
   A14        1.98207  -0.00078   0.11450  -0.07813   0.03626   2.01833
   A15        2.26014  -0.06022  -0.20221  -0.02728  -0.22960   2.03054
   A16        2.04096   0.06100   0.08767   0.10550   0.19305   2.23402
    D1       -0.00162  -0.00012   0.00047  -0.00166  -0.00145  -0.00308
    D2       -3.07763  -0.00023  -0.00612   0.00015  -0.00538  -3.08302
    D3        3.13796  -0.00006   0.00152  -0.00390  -0.00266   3.13530
    D4        0.06195  -0.00017  -0.00507  -0.00209  -0.00659   0.05536
    D5        0.00332  -0.00020  -0.00118  -0.00133  -0.00230   0.00102
    D6       -3.13625  -0.00026  -0.00224   0.00100  -0.00097  -3.13721
    D7       -0.00071   0.00037   0.00042   0.00394   0.00447   0.00376
    D8        3.13711   0.00039   0.00195   0.00150   0.00352   3.14064
    D9        3.07665  -0.00069  -0.00799   0.00551  -0.00229   3.07436
   D10       -0.06871  -0.00067  -0.00646   0.00307  -0.00323  -0.07194
   D11        3.13377   0.00072  -0.00232   0.01020   0.00818  -3.14124
   D12       -0.00409  -0.00046   0.00208  -0.02222  -0.01985  -0.02394
   D13        0.07545  -0.00017  -0.00115   0.00623   0.00478   0.08024
   D14       -3.06240  -0.00135   0.00324  -0.02619  -0.02324  -3.08564
   D15        0.00276  -0.00050  -0.00117  -0.00504  -0.00613  -0.00337
   D16        3.13985  -0.00003   0.00062  -0.00133  -0.00068   3.13917
   D17       -3.13461  -0.00050  -0.00287  -0.00227  -0.00501  -3.13962
   D18        0.00248  -0.00004  -0.00108   0.00144   0.00044   0.00292
   D19       -0.00354   0.00034   0.00137   0.00350   0.00505   0.00151
   D20       -3.14106  -0.00006  -0.00025   0.00025   0.00010  -3.14096
         Item               Value     Threshold  Converged?
 Maximum Force            0.061004     0.000450     NO 
 RMS     Force            0.017334     0.000300     NO 
 Maximum Displacement     0.643635     0.001800     NO 
 RMS     Displacement     0.143913     0.001200     NO 
 Predicted change in Energy=-1.315247D-02
 GradGradGradGradGradGradGradGradGradGradGradGradGradGradGradGradGradGrad

                          Input orientation:                          
 ---------------------------------------------------------------------
 Center     Atomic      Atomic             Coordinates (Angstroms)
 Number     Number       Type             X           Y           Z
 ---------------------------------------------------------------------
      1          7           0       -0.977137   -1.009983    0.009203
      2          7           0       -0.371200    0.233639   -0.001043
      3          6           0       -1.397413    1.165765   -0.007863
      4          6           0       -2.557436    0.427663    0.003666
      5          7           0       -2.311787   -0.902544    0.012961
      6          1           0       -1.218339    2.229027   -0.015558
      7          1           0       -3.570463    0.798552    0.004905
      8          1           0       -0.448602   -1.870047    0.010377
      9          6           0        1.015222    0.366786   -0.076236
     10          8           0        1.453314    1.557989   -0.077670
     11          8           0        1.686275   -0.715808   -0.107142
 ---------------------------------------------------------------------
                    Distance matrix (angstroms):
                    1          2          3          4          5
     1  N    0.000000
     2  N    1.383423   0.000000
     3  C    2.216033   1.386369   0.000000
     4  C    2.136400   2.194834   1.374984   0.000000
     5  N    1.338973   2.248775   2.261507   1.352731   0.000000
     6  H    3.248073   2.167817   1.078264   2.244652   3.317104
     7  H    3.161670   3.248761   2.203895   1.078788   2.116142
     8  H    1.009486   2.105141   3.180681   3.118766   2.099412
     9  C    2.423280   1.394829   2.542410   3.574070   3.562042
    10  O    3.536823   2.255798   2.878430   4.167778   4.498713
    11  O    2.682133   2.268459   3.613766   4.396463   4.004222
                    6          7          8          9         10
     6  H    0.000000
     7  H    2.753028   0.000000
     8  H    4.170801   4.107003   0.000000
     9  C    2.908680   4.606681   2.674641   0.000000
    10  O    2.755337   5.081525   3.921284   1.269209   0.000000
    11  O    4.137296   5.471667   2.429769   1.274078   2.285889
                   11
    11  O    0.000000
 Stoichiometry    C3H3N3O2(1-,2)
 Framework group  C1[X(C3H3N3O2)]
 Deg. of freedom    27
 Full point group                 C1      NOp   1
 Largest Abelian subgroup         C1      NOp   1
 Largest concise Abelian subgroup C1      NOp   1
                         Standard orientation:                         
 ---------------------------------------------------------------------
 Center     Atomic      Atomic             Coordinates (Angstroms)
 Number     Number       Type             X           Y           Z
 ---------------------------------------------------------------------
      1          7           0       -0.734314   -1.051363    0.022234
      2          7           0        0.044819    0.091759    0.031330
      3          6           0       -0.835606    1.162252    0.001058
      4          6           0       -2.089915    0.599338   -0.019412
      5          7           0       -2.039135   -0.752390   -0.007893
      6          1           0       -0.504819    2.188524    0.001209
      7          1           0       -3.038501    1.112574   -0.043007
      8          1           0       -0.335644   -1.978713    0.034325
      9          6           0        1.437416    0.023331   -0.007891
     10          8           0        2.042725    1.138817    0.005552
     11          8           0        1.945776   -1.144812   -0.024896
 ---------------------------------------------------------------------
 Rotational constants (GHZ):           5.2794397           1.7526402           1.3160958
 Standard basis: 6-31+G(d,p) (6D, 7F)
[...]
    A1        1.95994  -0.00000   0.00000  -0.00029  -0.00012   1.95982
    A2        2.11732   0.00003   0.00000   0.00019   0.00010   2.11742
    A3        2.20592  -0.00003   0.00000   0.00010   0.00002   2.20594
    A4        1.84370  -0.00001   0.00000   0.00044   0.00016   1.84387
    A5        2.13569   0.00003   0.00000   0.00104   0.00033   2.13602
    A6        2.30196  -0.00002   0.00000   0.00205   0.00134   2.30329
    A7        1.84555  -0.00001   0.00000  -0.00024  -0.00008   1.84548
    A8        2.12010   0.00005   0.00000   0.00058   0.00049   2.12060
    A9        2.31752  -0.00004   0.00000  -0.00032  -0.00041   2.31711
   A10        1.96366   0.00001   0.00000  -0.00001  -0.00004   1.96363
   A11        2.22330  -0.00001   0.00000  -0.00015  -0.00014   2.22316
   A12        2.09622   0.00000   0.00000   0.00016   0.00018   2.09640
   A13        1.81190   0.00001   0.00000   0.00013   0.00009   1.81199
   A14        2.01874   0.00003   0.00000   0.00021   0.00021   2.01894
   A15        2.01199  -0.00002   0.00000  -0.00013  -0.00014   2.01185
   A16        2.25244  -0.00001   0.00000  -0.00005  -0.00005   2.25239
    D1       -0.00470   0.00001   0.00000   0.00587   0.00587   0.00117
    D2       -3.08836  -0.00002   0.00000  -0.04995  -0.04992  -3.13828
    D3        3.13203  -0.00001   0.00000   0.00606   0.00604   3.13807
    D4        0.04837  -0.00004   0.00000  -0.04976  -0.04974  -0.00137
    D5        0.00235   0.00000   0.00000  -0.00355  -0.00354  -0.00119
    D6       -3.13408   0.00003   0.00000  -0.00374  -0.00373  -3.13781
    D7        0.00496  -0.00002   0.00000  -0.00560  -0.00559  -0.00063
    D8       -3.14110  -0.00001   0.00000  -0.00089  -0.00089   3.14120
    D9        3.08081   0.00002   0.00000   0.05769   0.05771   3.13852
   D10       -0.06525   0.00003   0.00000   0.06240   0.06241  -0.00284
   D11        3.11348   0.00002   0.00000   0.02761   0.02762   3.14110
   D12       -0.03344   0.00003   0.00000   0.03276   0.03277  -0.00067
   D13        0.04686  -0.00002   0.00000  -0.04456  -0.04457   0.00229
   D14       -3.10006  -0.00001   0.00000  -0.03941  -0.03942  -3.13948
   D15       -0.00385   0.00002   0.00000   0.00377   0.00377  -0.00009
   D16        3.13827   0.00001   0.00000   0.00356   0.00356  -3.14135
   D17       -3.14025   0.00001   0.00000  -0.00170  -0.00170   3.14124
   D18        0.00187  -0.00001   0.00000  -0.00191  -0.00190  -0.00003
   D19        0.00101  -0.00002   0.00000  -0.00025  -0.00025   0.00077
   D20       -3.14107  -0.00000   0.00000  -0.00006  -0.00006  -3.14112
         Item               Value     Threshold  Converged?
 Maximum Force            0.000103     0.000450     YES
 RMS     Force            0.000033     0.000300     YES
 Maximum Displacement     0.055267     0.001800     NO 
 RMS     Displacement     0.015276     0.001200     NO 
 Predicted change in Energy=-4.606020D-06
                           ----------------------------
                           ! Non-Optimized Parameters !
                           ! (Angstroms and Degrees)  !
 --------------------------                            --------------------------
 ! Name  Definition              Value          Derivative Info.                !
 --------------------------------------------------------------------------------
 ! R1    R(1,2)                  1.3766         -DE/DX =    0.0001              !
 ! R2    R(1,5)                  1.3554         -DE/DX =   -0.0001              !
 ! R3    R(1,8)                  1.0099         -DE/DX =    0.0                 !
 ! R4    R(2,3)                  1.3903         -DE/DX =   -0.0001              !
 ! R5    R(2,9)                  1.4064         -DE/DX =    0.0001              !
 ! R6    R(3,4)                  1.3713         -DE/DX =    0.0                 !
 ! R7    R(3,6)                  1.0768         -DE/DX =    0.0                 !
 ! R8    R(4,5)                  1.3553         -DE/DX =   -0.0001              !
 ! R9    R(4,7)                  1.08           -DE/DX =    0.0                 !
 ! R10   R(9,10)                 1.2589         -DE/DX =    0.0                 !
 ! R11   R(9,11)                 1.2611         -DE/DX =    0.0                 !
 ! A1    A(2,1,5)              112.2894         -DE/DX =    0.0                 !
 ! A2    A(2,1,8)              121.3191         -DE/DX =    0.0                 !
 ! A3    A(5,1,8)              126.3909         -DE/DX =    0.0                 !
 ! A4    A(1,2,3)              105.6457         -DE/DX =    0.0                 !
 ! A5    A(1,2,9)              122.3851         -DE/DX =    0.0                 !
 ! A6    A(3,2,9)              131.969          -DE/DX =    0.0                 !
 ! A7    A(2,3,4)              105.738          -DE/DX =    0.0                 !
 ! A8    A(2,3,6)              121.5012         -DE/DX =    0.0                 !
 ! A9    A(4,3,6)              132.7608         -DE/DX =    0.0                 !
 ! A10   A(3,4,5)              112.5075         -DE/DX =    0.0                 !
 ! A11   A(3,4,7)              127.3779         -DE/DX =    0.0                 !
 ! A12   A(5,4,7)              120.1146         -DE/DX =    0.0                 !
 ! A13   A(1,5,4)              103.8194         -DE/DX =    0.0                 !
 ! A14   A(2,9,10)             115.677          -DE/DX =    0.0                 !
 ! A15   A(2,9,11)             115.2706         -DE/DX =    0.0                 !
 ! A16   A(10,9,11)            129.0524         -DE/DX =    0.0                 !
 ! D1    D(5,1,2,3)              0.0668         -DE/DX =    0.0                 !
 ! D2    D(5,1,2,9)           -179.8101         -DE/DX =    0.0                 !
 ! D3    D(8,1,2,3)            179.7983         -DE/DX =    0.0                 !
 ! D4    D(8,1,2,9)             -0.0786         -DE/DX =    0.0                 !
 ! D5    D(2,1,5,4)             -0.0681         -DE/DX =    0.0                 !
 ! D6    D(8,1,5,4)           -179.7832         -DE/DX =    0.0                 !
 ! D7    D(1,2,3,4)             -0.036          -DE/DX =    0.0                 !
 ! D8    D(1,2,3,6)            179.9772         -DE/DX =    0.0                 !
 ! D9    D(9,2,3,4)            179.8242         -DE/DX =    0.0                 !
 ! D10   D(9,2,3,6)             -0.1626         -DE/DX =    0.0                 !
 ! D11   D(1,2,9,10)           179.9719         -DE/DX =    0.0                 !
 ! D12   D(1,2,9,11)            -0.0383         -DE/DX =    0.0                 !
 ! D13   D(3,2,9,10)             0.1314         -DE/DX =    0.0                 !
 ! D14   D(3,2,9,11)          -179.8788         -DE/DX =    0.0                 !
 ! D15   D(2,3,4,5)             -0.0049         -DE/DX =    0.0                 !
 ! D16   D(2,3,4,7)           -179.9863         -DE/DX =    0.0                 !
 ! D17   D(6,3,4,5)            179.9798         -DE/DX =    0.0                 !
 ! D18   D(6,3,4,7)             -0.0017         -DE/DX =    0.0                 !
 ! D19   D(3,4,5,1)              0.0438         -DE/DX =    0.0                 !
 ! D20   D(7,4,5,1)           -179.9732         -DE/DX =    0.0                 !
 --------------------------------------------------------------------------------
 GradGradGradGradGradGradGradGradGradGradGradGradGradGradGradGradGradGrad


 ----------------------------------------------------------------------

 Electric dipole moment (input orientation):
 (Debye = 10**-18 statcoulomb cm , SI units = C m)
                  (au)            (Debye)         (10**-30 SI)
   Tot        0.316564D+01      0.804625D+01      0.268394D+02
   x         -0.316153D+01     -0.803581D+01     -0.268046D+02
   y         -0.110612D+00     -0.281147D+00     -0.937806D+00
   z          0.117277D+00      0.298089D+00      0.994319D+00

 Dipole polarizability, Alpha (input orientation).
 (esu units = cm**3 , SI units = C**2 m**2 J**-1)
 Alpha(0;0):
               (au)            (10**-24 esu)      (10**-40 SI)
   iso        0.100364D+03      0.148725D+02      0.165479D+02
   aniso      0.680895D+02      0.100898D+02      0.112264D+02
   xx         0.132044D+03      0.195669D+02      0.217712D+02
   yx         0.861501D+01      0.127661D+01      0.142042D+01
   yy         0.111271D+03      0.164887D+02      0.183461D+02
   zx        -0.166226D+01     -0.246321D+00     -0.274069D+00
   zy        -0.580656D+00     -0.860444D-01     -0.957373D-01
   zz         0.577782D+02      0.856184D+01      0.952633D+01

 ----------------------------------------------------------------------

 Dipole orientation:
     7          0.00261859         -1.83701527          1.91796956
     7         -0.04211162          0.45071876          0.68022164
     6         -0.18433187          2.27417229          2.56702424
     6         -0.20327003          0.96940393          4.80567856
     7         -0.09134501         -1.56675610          4.46357114
     1         -0.24738376          4.25909324          2.12357937
     1         -0.29479841          1.74496357          6.69130478
     1          0.08788990         -3.48343753          0.95651967
     6         -0.08119867          0.63352419         -1.97176088
     8         -0.18025078          2.84164367         -2.85092193
     8         -0.00036867         -1.44391960         -3.13622239

 Electric dipole moment (dipole orientation):
 (Debye = 10**-18 statcoulomb cm , SI units = C m)
                  (au)            (Debye)         (10**-30 SI)
   Tot        0.316564D+01      0.804625D+01      0.268394D+02
   x          0.000000D+00      0.000000D+00      0.000000D+00
   y          0.000000D+00      0.000000D+00      0.000000D+00
   z          0.316564D+01      0.804625D+01      0.268394D+02

 Dipole polarizability, Alpha (dipole orientation).
 (esu units = cm**3 , SI units = C**2 m**2 J**-1)
 Alpha(0;0):
               (au)            (10**-24 esu)      (10**-40 SI)
   iso        0.100364D+03      0.148725D+02      0.165479D+02
   aniso      0.680895D+02      0.100898D+02      0.112264D+02
   xx         0.578372D+02      0.857059D+01      0.953606D+01
   yx        -0.207963D+01     -0.308170D+00     -0.342885D+00
   yy         0.110614D+03      0.163912D+02      0.182377D+02
   zx        -0.817600D+00     -0.121156D+00     -0.134804D+00
   zy        -0.791542D+01     -0.117294D+01     -0.130508D+01
   zz         0.132643D+03      0.196556D+02      0.218698D+02

 ----------------------------------------------------------------------
 1\1\GINC-NODE5\Freq\UM062X\6-31+G(d,p)\C3H3N3O2(1-,2)\GONGKE2021\06-Ju
 l-2023\0\\#N Geom=AllCheck Guess=TCheck SCRF=Check GenChk UM062X/6-31+
 G(d,p) Freq\\test\\-1,2\N,-0.9808650827,-1.0064723792,0.0050178437\N,-
 0.368368267,0.2264017517,-0.0005863864\C,-1.4008717487,1.1578409602,-0
 .0050428392\C,-2.561129201,0.4271442676,0.0047106394\N,-2.3329045655,-
 0.9090211898,0.0102611197\H,-1.2031351794,2.2163014027,-0.0103571219\H
 ,-3.5733262925,0.8038338436,0.0076455659\H,-0.441706035,-1.8604368233,
 0.0007916465\C,1.0291337832,0.3727559327,-0.0698539758\O,1.4524396798,
 1.5578864104,-0.0986090179\O,1.6831677086,-0.7051939568,-0.0883769439\
 \Version=ES64L-G16RevA.03\State=2-A\HF=-430.7676891\S2=0.764221\S2-1=0
 .\S2A=0.750075\RMSD=2.763e-09\RMSF=6.989e-05\ZeroPoint=0.0707689\Therm
 al=0.0771467\Dipole=-3.1615329,-0.1106118,0.1172774\DipoleDeriv=0.1582
 808,0.8151441,-0.0073469,0.1074252,-0.5589764,0.0147553,-0.0128851,0.0
 01285,-0.4098979,-2.3208751,-0.3476167,0.0514441,0.1236932,0.0858071,-
 0.0052594,0.1129532,0.0135316,0.0579067,-0.006036,-0.1877207,0.0142245
 ,-0.38207,-0.4534355,0.0045241,-0.0025701,0.0050894,-0.3401948,0.43238
 95,0.1555154,-0.0061096,0.7007164,0.8731315,-0.0195127,-0.0087361,-0.0
 047915,-0.1188667,-0.6334792,-0.5869913,0.0177356,-0.6962608,-0.998356
 3,0.015299,0.0082396,0.0034238,-0.2792634,0.1330643,-0.0124465,0.00051
 47,0.0177942,0.1351633,0.000493,-0.0020337,-0.0026123,0.3143648,0.0282
 331,0.0580605,0.000834,0.0417186,0.1427677,0.0000622,0.0009387,-0.0003
 678,0.2145557,0.3063874,-0.1289876,0.0016536,-0.0815914,0.5102027,-0.0
 018722,-0.0012701,-0.002237,0.4715154,4.3082412,0.2126727,-0.1281648,0
 .1203284,3.4102044,-0.0277322,-0.1693055,-0.0350171,0.5543547,-1.53967
 04,-0.5009476,0.0265385,-1.052966,-2.2944463,0.0444363,0.0396761,0.034
 9198,-0.7352113,-1.8665356,0.5233178,0.0286763,1.1012123,-1.8520621,-0
 .0251934,0.034993,-0.013224,-0.7292632\Polar=132.0442177,8.6150079,111
 .271038,-1.6622572,-0.5806564,57.7781557\Quadrupole=-11.4804926,4.2445
 102,7.2359824,-7.5339427,0.6774897,0.1632753\PG=C01 [X(C3H3N3O2)]\NIma
 g=1\\0.71661646,-0.20084618,0.86811980,-0.00534795,-0.00034079,-0.0338
 4953,-0.13246890,-0.04807482,0.00152383,0.82220014,-0.05786912,-0.2683
 6161,-0.00081506,-0.00990761,0.64729419,0.00280296,0.00163769,0.003904
 89,-0.01713191,-0.00402447,0.03777138,-0.00115382,0.02304816,-0.000507
 86,-0.21545549,0.09881092,0.00203582,0.62418377,0.01617244,-0.07422532
 ,0.00049567,0.07519120,-0.19376102,0.00120372,0.11695099,0.85700457,-0
 .00036801,-0.00020359,-0.00639382,-0.00009892,0.00255315,-0.02693572,-
 0.00392871,-0.00463231,0.08156495,-0.06659228,0.05057589,0.00020840,-0
 .07372523,0.02789065,0.00016527,-0.32687681,-0.12794877,0.00217368,0.9
 0785404,0.04252152,-0.03899269,0.00028497,0.00449263,0.00508716,-0.001
 11123,-0.10662891,-0.14789461,0.00113858,-0.08137765,0.56694723,0.0001
 0756,-0.00000318,0.00721675,-0.00007228,0.00000690,0.01284843,0.002047
 23,0.00099153,-0.05939628,-0.00347175,-0.00158672,0.12668695,-0.302376
 22,-0.01060623,0.00209363,-0.09197134,-0.03546757,0.00087682,0.0161446
 3,-0.02599541,0.00042653,-0.10441662,0.06960436,0.00000053,0.47119853,
 0.06470078,-0.11380101,-0.00035100,-0.02825915,-0.00766323,0.00117164,
 -0.07719699,-0.10498190,0.00095805,0.03638956,-0.27855866,0.00073366,-
 0.02546476,0.49590942,0.00085521,0.00035388,-0.00833328,0.00031497,-0.
 00011579,-0.00718517,0.00055446,0.00089152,0.02797229,-0.00003085,0.00
 063647,-0.05631255,-0.00201775,-0.00189775,0.05767737,-0.00630124,0.00
 305328,0.00003451,0.00886780,0.02596211,-0.00015668,-0.06710869,-0.066
 56843,0.00036818,0.00753580,-0.02050187,0.00003113,-0.00361369,-0.0034
 0715,0.00006835,0.05937424,0.00119549,-0.00020603,0.00000551,-0.004456
 63,-0.01174203,0.00001375,-0.05634684,-0.36891293,0.00187918,0.0013801
 0,-0.00282119,-0.00002809,0.00070839,0.00235362,0.00003018,0.06042269,
 0.38203544,0.00009841,-0.00004477,0.00311346,-0.00001979,0.00013485,-0
 .00446470,0.00039201,0.00160243,-0.01603809,-0.00002575,0.00026297,-0.
 00041858,-0.00007595,-0.00006399,0.00626989,-0.00033324,-0.00197545,0.
 01415324,0.00192651,-0.00068333,0.00001707,-0.00265047,-0.00276395,0.0
 0017763,-0.00933342,0.01149468,-0.00003829,-0.33628116,0.09799768,0.00
 100745,0.00175144,0.00154013,-0.00003023,0.00015705,-0.00024444,-0.000
 00617,0.34382481,0.00187635,-0.00771283,0.00004780,-0.00436939,-0.0036
 1540,0.00012669,-0.01366224,0.01317486,-0.00003389,0.09214432,-0.09356
 696,-0.00012267,0.03000540,-0.00412799,-0.00012708,0.00079844,-0.00021
 305,-0.00000928,-0.10798335,0.09367079,0.00008885,0.00015849,0.0062196
 9,0.00014189,-0.00013288,0.00641785,0.00010472,-0.00010732,0.00181805,
 0.00104712,-0.00022786,-0.03392229,-0.00023879,0.00010484,-0.00509794,
 -0.00001116,-0.00000972,-0.00280206,-0.00106422,0.00014275,0.02538888,
 -0.18027012,0.18616672,0.00120030,0.01399261,-0.01837099,0.00001548,-0
 .00291388,-0.00370733,0.00003750,-0.00663812,-0.00281546,0.00007986,-0
 .00427616,0.02493294,-0.00007730,0.00124305,-0.00044620,0.00001230,0.0
 0035491,0.00128895,0.00000059,0.17453239,0.17794776,-0.36644277,-0.001
 27930,0.01724932,-0.01543425,-0.00015872,-0.00450374,0.00001557,-0.000
 03571,-0.00346745,0.00045345,0.00001501,-0.00183065,0.01281704,0.00005
 865,0.00073363,-0.00021174,0.00001511,-0.00017252,0.00096429,-0.000014
 34,-0.18780125,0.36813596,0.00151088,-0.00178149,0.03023261,-0.0001621
 9,0.00016642,-0.01240750,-0.00000355,0.00010671,0.00075767,0.00002448,
 0.00004449,0.00234065,-0.00021283,-0.00003231,-0.01475205,-0.00000085,
 0.00000168,0.00044022,0.00000608,0.00001805,0.00133142,-0.00093186,0.0
 0150450,-0.00810454,-0.03273559,-0.00554268,0.00102186,-0.19877073,-0.
 02799378,0.00274782,-0.01899206,0.01660418,0.00132466,0.00231401,-0.00
 946456,0.00031311,0.03337895,0.01447082,0.00000254,0.00124935,-0.00144
 700,-0.00005920,0.00151126,0.00038379,-0.00000127,0.00596910,-0.002024
 89,0.00000614,0.53032805,-0.03395337,0.00107389,0.00141241,0.00386491,
 -0.10752302,0.00004860,0.01355736,0.01598811,-0.00118524,0.00536369,-0
 .00841116,0.00002588,-0.00056464,-0.00386153,0.00003223,-0.00023770,-0
 .00168239,0.00006773,0.00080771,0.00100816,0.00008215,-0.00266522,-0.0
 0401751,0.00020993,-0.02795715,0.86974396,0.00015186,0.00079603,-0.002
 90173,0.00736218,0.00123538,-0.04226120,-0.00077770,-0.00132514,-0.007
 05124,-0.00033020,0.00074731,0.00088446,-0.00160772,-0.00098335,-0.003
 01384,-0.00002833,0.00008342,-0.00018647,-0.00013922,-0.00008319,0.001
 43157,-0.00024084,0.00012345,0.00114026,-0.01177760,-0.00429957,0.2030
 3099,-0.00346840,0.00224189,0.00036686,-0.04955024,-0.06106516,0.00396
 437,0.00376261,-0.00101586,-0.00033017,0.00050792,-0.00089311,0.000007
 89,-0.00867619,-0.00469767,0.00012461,-0.00107233,-0.00122523,0.000038
 55,-0.00040839,-0.00003972,0.00000743,-0.00165294,0.00049400,0.0000078
 9,-0.13287516,-0.11729594,0.00372241,0.16341910,0.00124712,-0.00590401
 ,-0.00007380,-0.05002895,-0.02558656,0.00469936,0.00107494,-0.00089937
 ,-0.00073650,0.00087352,0.00536069,-0.00014702,-0.01139847,-0.00541972
 ,0.00008077,-0.00044340,0.00129663,0.00002642,-0.00034812,0.00018941,0
 .00001935,-0.00047470,0.00215957,-0.00005727,-0.11547724,-0.41263648,0
 .00771845,0.16442304,0.55253629,0.00041530,-0.00046482,0.00322835,0.00
 372093,0.00367440,0.01533814,-0.00009270,0.00002847,-0.00121286,-0.000
 00447,0.00002465,-0.00022119,0.00056008,0.00031856,0.00163697,0.000025
 22,0.00002286,0.00011421,0.00002244,0.00000245,-0.00008473,0.00007089,
 -0.00003594,-0.00002505,0.00313812,0.00820336,-0.07431714,-0.00740915,
 -0.01223666,0.03079892,0.00682361,0.00066729,-0.00061065,-0.08046815,0
 .06077451,0.00450242,-0.00225684,-0.01117769,0.00043355,-0.00368156,0.
 00706537,-0.00005072,-0.00714333,-0.00300851,0.00023599,-0.00033134,0.
 00045965,-0.00002117,-0.00085254,-0.00044255,-0.00007518,-0.00034083,0
 .00337579,-0.00024419,-0.19137718,0.15908035,0.00366515,0.03001402,0.0
 1055225,-0.00044666,0.24961413,-0.01299278,0.00645258,0.00061358,0.044
 29849,-0.01869421,-0.00360703,0.00489636,0.00449204,0.00029828,-0.0018
 2387,-0.00760326,0.00011469,0.01100958,0.00733397,0.00005691,0.0001884
 0,0.00010366,-0.00001600,0.00035550,0.00022872,-0.00001547,0.00389253,
 0.00156040,-0.00018070,0.15844850,-0.34968201,-0.00401280,0.01907375,-
 0.11109644,0.00046267,-0.22734646,0.46690456,-0.00031507,-0.00010744,-
 0.00243738,0.00442129,-0.00268288,0.01697360,0.00017627,0.00074472,0.0
 0491504,0.00024407,-0.00021364,0.00029364,0.00019546,0.00004165,0.0011
 3830,0.00000287,-0.00002333,-0.00018113,0.00004746,0.00003835,-0.00070
 045,-0.00016692,-0.00019271,-0.00095369,0.00328382,-0.00459749,-0.0767
 5567,-0.00050070,0.00070690,0.02474436,-0.00738854,0.00628586,0.032963
 38\\0.00009858,0.00004597,-0.00011539,0.00011840,-0.00007802,0.0001887
 9,-0.00015997,0.00004665,-0.00007992,0.00003726,0.00009763,0.00004037,
 -0.00010723,-0.00003195,-0.00003689,0.00006155,-0.00000416,0.00001726,
 -0.00000189,0.00002389,0.00000467,0.00000305,0.00001032,0.00004854,-0.
 00003131,-0.00006204,-0.00007930,-0.00000865,-0.00002801,0.00000451,-0
 .00000978,-0.00002029,0.00000737\\\@


 At the touch of love, everyone becomves a poet.
                                -- Plato
 Job cpu time:       0 days  0 hours 23 minutes 15.8 seconds.
 Elapsed time:       0 days  0 hours  0 minutes 59.1 seconds.
 File lengths (MBytes):  RWF=     92 Int=      0 D2E=      0 Chk=      7 Scr=      1
 Normal termination of Gaussian 16 at Thu Jul  6 20:56:12 2023.
