 Entering Gaussian System, Link 0=/opt/soft/g16/g16
 Initial command:
 /opt/soft/g16/l1.exe "/scratch/gongke2021/TS-H-cycle/Gau-7779.inp" -scrdir="/scratch/gongke2021/TS-H-cycle/"
 Entering Link 1 = /opt/soft/g16/l1.exe PID=      7780.
  
 Copyright (c) 1988,1990,1992,1993,1995,1998,2003,2009,2016,
            Gaussian, Inc.  All Rights Reserved.
  
 This is part of the Gaussian(R) 16 program.  It is based on
 the Gaussian(R) 09 system (copyright 2009, Gaussian, Inc.),
 the Gaussian(R) 03 system (copyright 2003, Gaussian, Inc.),
 the Gaussian(R) 98 system (copyright 1998, Gaussian, Inc.),
 the Gaussian(R) 94 system (copyright 1995, Gaussian, Inc.),
 the Gaussian 92(TM) system (copyright 1992, Gaussian, Inc.),
 the Gaussian 90(TM) system (copyright 1990, Gaussian, Inc.),
 the Gaussian 88(TM) system (copyright 1988, Gaussian, Inc.),
 the Gaussian 86(TM) system (copyright 1986, Carnegie Mellon
 University), and the Gaussian 82(TM) system (copyright 1983,
 Carnegie Mellon University). Gaussian is a federally registered
 trademark of Gaussian, Inc.
  
 This software contains proprietary and confidential information,
 including trade secrets, belonging to Gaussian, Inc.
  
 This software is provided under written license and may be
 used, copied, transmitted, or stored only in accord with that
 written license.
  
 The following legend is applicable only to US Government
 contracts under FAR:
  
                    RESTRICTED RIGHTS LEGEND
  
 Use, reproduction and disclosure by the US Government is
 subject to restrictions as set forth in subparagraphs (a)
 and (c) of the Commercial Computer Software - Restricted
 Rights clause in FAR 52.227-19.
  
 Gaussian, Inc.
 340 Quinnipiac St., Bldg. 40, Wallingford CT 06492
  
  
 ---------------------------------------------------------------
 Warning -- This program may not be used in any manner that
 competes with the business of Gaussian, Inc. or will provide
 assistance to any competitor of Gaussian, Inc.  The licensee
 of this program is prohibited from giving any competitor of
 Gaussian, Inc. access to this program.  By using this program,
 the user acknowledges that Gaussian, Inc. is engaged in the
 business of creating and licensing software in the field of
 computational chemistry and represents and warrants to the
 licensee that it is not a competitor of Gaussian, Inc. and that
 it will not use this program in any manner prohibited above.
 ---------------------------------------------------------------
  

 Cite this work as:
 Gaussian 16, Revision A.03,
 M. J. Frisch, G. W. Trucks, H. B. Schlegel, G. E. Scuseria, 
 M. A. Robb, J. R. Cheeseman, G. Scalmani, V. Barone, 
 G. A. Petersson, H. Nakatsuji, X. Li, M. Caricato, A. V. Marenich, 
 J. Bloino, B. G. Janesko, R. Gomperts, B. Mennucci, H. P. Hratchian, 
 J. V. Ortiz, A. F. Izmaylov, J. L. Sonnenberg, D. Williams-Young, 
 F. Ding, F. Lipparini, F. Egidi, J. Goings, B. Peng, A. Petrone, 
 T. Henderson, D. Ranasinghe, V. G. Zakrzewski, J. Gao, N. Rega, 
 G. Zheng, W. Liang, M. Hada, M. Ehara, K. Toyota, R. Fukuda, 
 J. Hasegawa, M. Ishida, T. Nakajima, Y. Honda, O. Kitao, H. Nakai, 
 T. Vreven, K. Throssell, J. A. Montgomery, Jr., J. E. Peralta, 
 F. Ogliaro, M. J. Bearpark, J. J. Heyd, E. N. Brothers, K. N. Kudin, 
 V. N. Staroverov, T. A. Keith, R. Kobayashi, J. Normand, 
 K. Raghavachari, A. P. Rendell, J. C. Burant, S. S. Iyengar, 
 J. Tomasi, M. Cossi, J. M. Millam, M. Klene, C. Adamo, R. Cammi, 
 J. W. Ochterski, R. L. Martin, K. Morokuma, O. Farkas, 
 J. B. Foresman, and D. J. Fox, Gaussian, Inc., Wallingford CT, 2016.
 
 ******************************************
 Gaussian 16:  ES64L-G16RevA.03 25-Dec-2016
                11-Jul-2023 
 ******************************************
 %mem=10GB
 %nprocshared=24
 Will use up to   24 processors via shared memory.
 ----------------------------------------------------------------------
 # opt=(calcfc,ts,noeigentest) freq 6-31+g(d,p) integral=grid=ultrafine
  m062x scrf=(SMD,solvent=water)
 ----------------------------------------------------------------------
 1/5=1,10=4,11=1,18=20,26=6,38=1/1,3;
 2/9=110,12=2,17=6,18=5,40=1/2;
 3/5=1,6=6,7=111,11=2,25=1,30=1,70=32201,71=2,72=1,74=-55,75=-5,140=1/1,2,3;
 4//1;
 5/5=2,38=5,53=1/2;
 8/6=4,10=90,11=11/1;
 11/6=1,8=1,9=11,15=111,16=1/1,2,10;
 10/6=1,13=1/2;
 6/7=2,8=2,9=2,10=2,28=1/1;
 7/10=1,18=20,25=1/1,2,3,16;
 1/5=1,10=4,11=1,18=20,26=6/3(2);
 2/9=110/2;
 99//99;
 2/9=110/2;
 3/5=1,6=6,7=111,11=2,25=1,30=1,70=32205,71=1,72=1,74=-55,75=-5/1,2,3;
 4/5=5,16=3,69=1/1;
 5/5=2,38=5,53=1/2;
 7//1,2,3,16;
 1/5=1,11=1,18=20,26=6/3(-5);
 2/9=110/2;
 6/7=2,8=2,9=2,10=2,19=2,28=1/1;
 99/9=1/99;
 ----
 test
 ----
 Symbolic Z-matrix:
 Charge = -1 Multiplicity = 2
 N                     0.56164  -0.92185  -0.36206 
 N                     0.24137   0.40484  -0.02664 
 C                     1.43532   1.07857   0.21054 
 C                     2.40661   0.1077    0.11223 
 N                     1.89376  -1.0985   -0.18968 
 H                     1.43986   2.13061   0.43378 
 H                     3.47282   0.22594   0.25259 
 H                    -1.25796  -1.4967   -0.47377 
 C                    -1.02948   0.96797  -0.05791 
 O                    -1.14715   2.18319   0.08511 
 O                    -2.03669   0.14123  -0.24506 
 H                    -1.1177   -3.3524   -0.44129 
 O                    -1.68786  -2.65823  -0.78536 
 H                    -2.60854  -2.46098  -0.06136 
 
 Add virtual bond connecting atoms H14        and O13        Dist= 2.24D+00.
 Add virtual bond connecting atoms O13        and H8         Dist= 2.41D+00.
 Add virtual bond connecting atoms N1         and H8         Dist= 3.61D+00.
 Add virtual bond connecting atoms O11        and H8         Dist= 3.45D+00.

 GradGradGradGradGradGradGradGradGradGradGradGradGradGradGradGradGradGrad
 Berny optimization.
 Initialization pass.
                           ----------------------------
                           !    Initial Parameters    !
                           ! (Angstroms and Degrees)  !
 --------------------------                            --------------------------
 ! Name  Definition              Value          Derivative Info.                !
 --------------------------------------------------------------------------------
 ! R1    R(1,2)                  1.4054         calculate D2E/DX2 analytically  !
 ! R2    R(1,5)                  1.3548         calculate D2E/DX2 analytically  !
 ! R3    R(1,8)                  1.9115         calculate D2E/DX2 analytically  !
 ! R4    R(2,3)                  1.3913         calculate D2E/DX2 analytically  !
 ! R5    R(2,9)                  1.3904         calculate D2E/DX2 analytically  !
 ! R6    R(3,4)                  1.3768         calculate D2E/DX2 analytically  !
 ! R7    R(3,6)                  1.0755         calculate D2E/DX2 analytically  !
 ! R8    R(4,5)                  1.345          calculate D2E/DX2 analytically  !
 ! R9    R(4,7)                  1.0819         calculate D2E/DX2 analytically  !
 ! R10   R(8,11)                 1.828          calculate D2E/DX2 analytically  !
 ! R11   R(8,13)                 1.2771         calculate D2E/DX2 analytically  !
 ! R12   R(9,10)                 1.2293         calculate D2E/DX2 analytically  !
 ! R13   R(9,11)                 1.3164         calculate D2E/DX2 analytically  !
 ! R14   R(12,13)                0.9619         calculate D2E/DX2 analytically  !
 ! R15   R(13,14)                1.1877         calculate D2E/DX2 analytically  !
 ! A1    A(2,1,5)              108.4687         calculate D2E/DX2 analytically  !
 ! A2    A(2,1,8)               94.6407         calculate D2E/DX2 analytically  !
 ! A3    A(5,1,8)              154.7172         calculate D2E/DX2 analytically  !
 ! A4    A(1,2,3)              107.5926         calculate D2E/DX2 analytically  !
 ! A5    A(1,2,9)              125.821          calculate D2E/DX2 analytically  !
 ! A6    A(3,2,9)              126.3059         calculate D2E/DX2 analytically  !
 ! A7    A(2,3,4)              104.5811         calculate D2E/DX2 analytically  !
 ! A8    A(2,3,6)              120.8442         calculate D2E/DX2 analytically  !
 ! A9    A(4,3,6)              134.558          calculate D2E/DX2 analytically  !
 ! A10   A(3,4,5)              112.2978         calculate D2E/DX2 analytically  !
 ! A11   A(3,4,7)              127.5101         calculate D2E/DX2 analytically  !
 ! A12   A(5,4,7)              120.1914         calculate D2E/DX2 analytically  !
 ! A13   A(1,5,4)              106.6509         calculate D2E/DX2 analytically  !
 ! A14   A(1,8,11)              97.3971         calculate D2E/DX2 analytically  !
 ! A15   A(1,8,13)             127.4595         calculate D2E/DX2 analytically  !
 ! A16   A(11,8,13)            134.5917         calculate D2E/DX2 analytically  !
 ! A17   A(2,9,10)             119.0297         calculate D2E/DX2 analytically  !
 ! A18   A(2,9,11)             116.6268         calculate D2E/DX2 analytically  !
 ! A19   A(10,9,11)            124.3433         calculate D2E/DX2 analytically  !
 ! A20   A(8,11,9)             104.7478         calculate D2E/DX2 analytically  !
 ! A21   A(8,13,12)            111.687          calculate D2E/DX2 analytically  !
 ! A22   A(8,13,14)             87.7748         calculate D2E/DX2 analytically  !
 ! A23   A(12,13,14)           111.1767         calculate D2E/DX2 analytically  !
 ! D1    D(5,1,2,3)              6.6235         calculate D2E/DX2 analytically  !
 ! D2    D(5,1,2,9)           -179.1629         calculate D2E/DX2 analytically  !
 ! D3    D(8,1,2,3)            176.2188         calculate D2E/DX2 analytically  !
 ! D4    D(8,1,2,9)             -9.5676         calculate D2E/DX2 analytically  !
 ! D5    D(2,1,5,4)             -5.8386         calculate D2E/DX2 analytically  !
 ! D6    D(8,1,5,4)           -160.9105         calculate D2E/DX2 analytically  !
 ! D7    D(2,1,8,11)             5.8979         calculate D2E/DX2 analytically  !
 ! D8    D(2,1,8,13)           178.3476         calculate D2E/DX2 analytically  !
 ! D9    D(5,1,8,11)           162.2517         calculate D2E/DX2 analytically  !
 ! D10   D(5,1,8,13)           -25.2986         calculate D2E/DX2 analytically  !
 ! D11   D(1,2,3,4)             -4.6065         calculate D2E/DX2 analytically  !
 ! D12   D(1,2,3,6)            176.6739         calculate D2E/DX2 analytically  !
 ! D13   D(9,2,3,4)           -178.7842         calculate D2E/DX2 analytically  !
 ! D14   D(9,2,3,6)              2.4962         calculate D2E/DX2 analytically  !
 ! D15   D(1,2,9,10)          -170.2727         calculate D2E/DX2 analytically  !
 ! D16   D(1,2,9,11)             9.5987         calculate D2E/DX2 analytically  !
 ! D17   D(3,2,9,10)             2.8781         calculate D2E/DX2 analytically  !
 ! D18   D(3,2,9,11)          -177.2505         calculate D2E/DX2 analytically  !
 ! D19   D(2,3,4,5)              1.0909         calculate D2E/DX2 analytically  !
 ! D20   D(2,3,4,7)           -178.6116         calculate D2E/DX2 analytically  !
 ! D21   D(6,3,4,5)            179.548          calculate D2E/DX2 analytically  !
 ! D22   D(6,3,4,7)             -0.1544         calculate D2E/DX2 analytically  !
 ! D23   D(3,4,5,1)              2.9903         calculate D2E/DX2 analytically  !
 ! D24   D(7,4,5,1)           -177.2828         calculate D2E/DX2 analytically  !
 ! D25   D(1,8,11,9)            -2.2568         calculate D2E/DX2 analytically  !
 ! D26   D(13,8,11,9)         -173.8348         calculate D2E/DX2 analytically  !
 ! D27   D(1,8,13,12)           36.5099         calculate D2E/DX2 analytically  !
 ! D28   D(1,8,13,14)          148.448          calculate D2E/DX2 analytically  !
 ! D29   D(11,8,13,12)        -154.0332         calculate D2E/DX2 analytically  !
 ! D30   D(11,8,13,14)         -42.0951         calculate D2E/DX2 analytically  !
 ! D31   D(2,9,11,8)            -2.6599         calculate D2E/DX2 analytically  !
 ! D32   D(10,9,11,8)          177.204          calculate D2E/DX2 analytically  !
 --------------------------------------------------------------------------------
 Trust Radius=3.00D-01 FncErr=5.00D-06 GrdErr=5.00D-06 EigMax=2.50D+02 EigMin=1.00D-04
 Number of steps in this run=     80 maximum allowed number of steps=    100.
 Search for a saddle point of order  1.
 GradGradGradGradGradGradGradGradGradGradGradGradGradGradGradGradGradGrad

                          Input orientation:                          
 ---------------------------------------------------------------------
 Center     Atomic      Atomic             Coordinates (Angstroms)
 Number     Number       Type             X           Y           Z
 ---------------------------------------------------------------------
      1          7           0        0.561643   -0.921850   -0.362055
      2          7           0        0.241370    0.404843   -0.026638
      3          6           0        1.435322    1.078573    0.210544
      4          6           0        2.406606    0.107704    0.112225
      5          7           0        1.893764   -1.098496   -0.189675
      6          1           0        1.439862    2.130605    0.433779
      7          1           0        3.472824    0.225938    0.252591
      8          1           0       -1.257958   -1.496703   -0.473772
      9          6           0       -1.029484    0.967965   -0.057905
     10          8           0       -1.147145    2.183187    0.085111
     11          8           0       -2.036694    0.141230   -0.245059
     12          1           0       -1.117702   -3.352402   -0.441292
     13          8           0       -1.687856   -2.658225   -0.785363
     14          1           0       -2.608536   -2.460982   -0.061357
 ---------------------------------------------------------------------
                    Distance matrix (angstroms):
                    1          2          3          4          5
     1  N    0.000000
     2  N    1.405416   0.000000
     3  C    2.256740   1.391290   0.000000
     4  C    2.165366   2.189936   1.376825   0.000000
     5  N    1.354793   2.239869   2.260525   1.345016   0.000000
     6  H    3.274462   2.150958   1.075465   2.264977   3.319912
     7  H    3.189072   3.248426   2.209110   1.081898   2.107879
     8  H    1.911514   2.462477   3.788679   4.043086   3.189456
     9  C    2.489095   1.390379   2.481848   3.546224   3.582318
    10  O    3.572278   2.258975   2.811591   4.115521   4.482419
    11  O    2.809837   2.303644   3.625063   4.457767   4.121709
    12  H    2.955345   4.016952   5.155227   4.969856   3.769925
    13  O    2.873054   3.698644   4.970889   5.022017   3.951659
    14  H    3.536861   4.041797   5.381001   5.637369   4.705693
                    6          7          8          9         10
     6  H    0.000000
     7  H    2.791688   0.000000
     8  H    4.610775   5.086786   0.000000
     9  C    2.773293   4.573597   2.509927   0.000000
    10  O    2.610927   5.020258   3.723737   1.229253   0.000000
    11  O    4.062619   5.532596   1.827994   1.316431   2.251643
    12  H    6.113121   5.861649   1.861275   4.338241   5.560640
    13  O    5.848233   6.002364   1.277120   3.756582   4.948673
    14  H    6.141446   6.655903   1.709965   3.775063   4.870875
                   11         12         13         14
    11  O    0.000000
    12  H    3.617806   0.000000
    13  O    2.872380   0.961947   0.000000
    14  H    2.670629   1.778079   1.187746   0.000000
 Stoichiometry    C3H5N3O3(1-,2)
 Framework group  C1[X(C3H5N3O3)]
 Deg. of freedom    36
 Full point group                 C1      NOp   1
 Largest Abelian subgroup         C1      NOp   1
 Largest concise Abelian subgroup C1      NOp   1
                         Standard orientation:                         
 ---------------------------------------------------------------------
 Center     Atomic      Atomic             Coordinates (Angstroms)
 Number     Number       Type             X           Y           Z
 ---------------------------------------------------------------------
      1          7           0        0.088090   -1.043657   -0.119228
      2          7           0        0.508145    0.290104    0.021583
      3          6           0        1.899015    0.291562    0.055755
      4          6           0        2.247482   -1.040359    0.041484
      5          7           0        1.173905   -1.848083   -0.022419
      6          1           0        2.448384    1.214776    0.105706
      7          1           0        3.243460   -1.461171    0.079528
      8          1           0       -1.774802   -0.632690    0.001698
      9          6           0       -0.315904    1.409693   -0.003245
     10          8           0        0.196088    2.526301   -0.049215
     11          8           0       -1.613290    1.188040    0.022250
     12          1           0       -2.553880   -2.292493    0.321756
     13          8           0       -2.756619   -1.444794   -0.085239
     14          1           0       -3.347126   -0.738718    0.665427
 ---------------------------------------------------------------------
 Rotational constants (GHZ):           1.8722621           1.5244676           0.8429865
 Standard basis: 6-31+G(d,p) (6D, 7F)
 There are   196 symmetry adapted cartesian basis functions of A   symmetry.
 There are   196 symmetry adapted basis functions of A   symmetry.
   196 basis functions,   323 primitive gaussians,   196 cartesian basis functions
    35 alpha electrons       34 beta electrons
       nuclear repulsion energy       445.1230348083 Hartrees.
 NAtoms=   14 NActive=   14 NUniq=   14 SFac= 1.00D+00 NAtFMM=   60 NAOKFM=F Big=F
 Integral buffers will be    131072 words long.
 Raffenetti 2 integral format.
 Two-electron integral symmetry is turned on.
 Force inversion solution in PCM.
 ------------------------------------------------------------------------------
 Polarizable Continuum Model (PCM)
 =================================
 Model                : PCM.
 Atomic radii         : SMD-Coulomb.
 Polarization charges : Total charges.
 Charge compensation  : None.
 Solution method      : Matrix inversion.
 Cavity type          : VdW (van der Waals Surface) (Alpha=1.000).
 Cavity algorithm     : GePol (No added spheres)
                        Default sphere list used, NSphG=   14.
                        Lebedev-Laikov grids with approx.  5.0 points / Ang**2.
                        Smoothing algorithm: York/Karplus (Gamma=1.0000).
                        Polarization charges: spherical gaussians, with
                                              point-specific exponents (IZeta= 3).
                        Self-potential: point-specific (ISelfS= 7).
                        Self-field    : sphere-specific E.n sum rule (ISelfD= 2).
 1st derivatives      : Analytical E(r).r(x)/FMM algorithm (CHGder, D1EAlg=3).
                        Cavity 1st derivative terms included.
 2nd derivatives      : Analytical E(r).r(xy)/FMM algorithm (CHGder, D2EAlg=3).
                        Cavity 2nd derivative terms included.
 Solvent              : Water, Eps=  78.355300 Eps(inf)=   1.777849
 ------------------------------------------------------------------------------
 Spheres list:
 ISph  on   Nord     Re0    Alpha      Xe            Ye            Ze
    1   N      1    1.8900  1.000      0.088090     -1.043657     -0.119228
    2   N      2    1.8900  1.000      0.508145      0.290104      0.021583
    3   C      3    1.8500  1.000      1.899015      0.291562      0.055755
    4   C      4    1.8500  1.000      2.247482     -1.040359      0.041484
    5   N      5    1.8900  1.000      1.173905     -1.848083     -0.022419
    6   H      6    1.2000  1.000      2.448384      1.214776      0.105706
    7   H      7    1.2000  1.000      3.243460     -1.461171      0.079528
    8   H      8    1.2000  1.000     -1.774802     -0.632690      0.001698
    9   C      9    1.8500  1.000     -0.315904      1.409693     -0.003245
   10   O     10    1.5200  1.000      0.196088      2.526301     -0.049215
   11   O     11    1.5200  1.000     -1.613290      1.188040      0.022250
   12   H     12    1.2000  1.000     -2.553880     -2.292493      0.321756
   13   O     13    1.5200  1.000     -2.756619     -1.444794     -0.085239
   14   H     14    1.2000  1.000     -3.347126     -0.738718      0.665427
 ------------------------------------------------------------------------------
 ------------------------------------------------------------------------------
 Atomic radii for non-electrostatic terms: SMD-CDS.
 ------------------------------------------------------------------------------
 Nuclear repulsion after PCM non-electrostatic terms =      445.1308508167 Hartrees.
 One-electron integrals computed using PRISM.
 NBasis=   196 RedAO= T EigKep=  2.65D-05  NBF=   196
 NBsUse=   196 1.00D-06 EigRej= -1.00D+00 NBFU=   196
 ExpMin= 4.38D-02 ExpMax= 5.48D+03 ExpMxC= 8.25D+02 IAcc=3 IRadAn=         5 AccDes= 0.00D+00
 Harris functional with IExCor= 1009 and IRadAn=       5 diagonalized for initial guess.
 HarFok:  IExCor= 1009 AccDes= 0.00D+00 IRadAn=         5 IDoV= 1 UseB2=F ITyADJ=14
 ICtDFT=  3500011 ScaDFX=  1.000000  1.000000  1.000000  1.000000
 FoFCou: FMM=F IPFlag=           0 FMFlag=      100000 FMFlg1=           0
         NFxFlg=           0 DoJE=T BraDBF=F KetDBF=T FulRan=T
         wScrn=  0.000000 ICntrl=       500 IOpCl=  0 I1Cent=   200000004 NGrid=           0
         NMat0=    1 NMatS0=      1 NMatT0=    0 NMatD0=    1 NMtDS0=    0 NMtDT0=    0
 Petite list used in FoFCou.
 Initial guess <Sx>= 0.0000 <Sy>= 0.0000 <Sz>= 0.5000 <S**2>= 0.7500 S= 0.5000
 Requested convergence on RMS density matrix=1.00D-08 within 128 cycles.
 Requested convergence on MAX density matrix=1.00D-06.
 Requested convergence on             energy=1.00D-06.
 No special actions if energy rises.
 Inv3:  Mode=1 IEnd=     4262592.
 Iteration    1 A*A^-1 deviation from unit magnitude is 3.11D-15 for    785.
 Iteration    1 A*A^-1 deviation from orthogonality  is 1.90D-15 for    668    398.
 Iteration    1 A^-1*A deviation from unit magnitude is 3.11D-15 for    785.
 Iteration    1 A^-1*A deviation from orthogonality  is 1.44D-15 for    815     63.
 Error on total polarization charges =  0.05940
 SCF Done:  E(UM062X) =  -507.081447708     A.U. after   19 cycles
            NFock= 19  Conv=0.86D-08     -V/T= 2.0094
 <Sx>= 0.0000 <Sy>= 0.0000 <Sz>= 0.5000 <S**2>= 0.7638 S= 0.5069
 <L.S>=  0.00000000000    
 SMD-CDS (non-electrostatic) energy       (kcal/mol) =       4.90
 (included in total energy above)
 Annihilation of the first spin contaminant:
 S**2 before annihilation     0.7638,   after     0.7501
 DoSCS=F DFT=T ScalE2(SS,OS)=  1.000000  1.000000
 Range of M.O.s used for correlation:     1   196
 NBasis=   196 NAE=    35 NBE=    34 NFC=     0 NFV=     0
 NROrb=    196 NOA=    35 NOB=    34 NVA=   161 NVB=   162

 **** Warning!!: The largest alpha MO coefficient is  0.44653617D+02


 **** Warning!!: The largest beta MO coefficient is  0.49999939D+02

 Symmetrizing basis deriv contribution to polar:
 IMax=3 JMax=2 DiffMx= 0.00D+00
 G2DrvN: will do    15 centers at a time, making    1 passes.
 Calling FoFCou, ICntrl=  3107 FMM=F I1Cent=   0 AccDes= 0.00D+00.
 NEqPCM:  Using equilibrium solvation (IEInf=0, Eps=  78.3553, EpsInf=   1.7778)
 G2PCM: DoFxE=T DoFxN=T DoGrad=T DoDP/DQ/DG/TGxP=FFFF NFrqRd=   0 IEInf=0 SqF1=F DoCFld=F IF1Alg=4.
 End of G2Drv F.D. properties file   721 does not exist.
 End of G2Drv F.D. properties file   722 does not exist.
 End of G2Drv F.D. properties file   788 does not exist.
          IDoAtm=11111111111111
 NEqPCM:  Using equilibrium solvation (IEInf=0, Eps=  78.3553, EpsInf=   1.7778)
          Differentiating once with respect to nuclear coordinates.
 Keep R1 and R2 ints in memory in canonical form, NReq=397284497.
          There are    45 degrees of freedom in the 1st order CPHF.  IDoFFX=6 NUNeed=     0.
     39 vectors produced by pass  0 Test12= 2.48D-14 2.22D-09 XBig12= 2.46D-01 1.03D-01.
 AX will form    39 AO Fock derivatives at one time.
     39 vectors produced by pass  1 Test12= 2.48D-14 2.22D-09 XBig12= 2.50D-02 6.50D-02.
     39 vectors produced by pass  2 Test12= 2.48D-14 2.22D-09 XBig12= 1.25D-03 6.12D-03.
     39 vectors produced by pass  3 Test12= 2.48D-14 2.22D-09 XBig12= 2.57D-05 1.01D-03.
     39 vectors produced by pass  4 Test12= 2.48D-14 2.22D-09 XBig12= 3.50D-07 8.83D-05.
     39 vectors produced by pass  5 Test12= 2.48D-14 2.22D-09 XBig12= 4.06D-09 6.59D-06.
     39 vectors produced by pass  6 Test12= 2.48D-14 2.22D-09 XBig12= 4.11D-11 6.74D-07.
     28 vectors produced by pass  7 Test12= 2.48D-14 2.22D-09 XBig12= 3.68D-13 5.18D-08.
      8 vectors produced by pass  8 Test12= 2.48D-14 2.22D-09 XBig12= 2.56D-15 4.56D-09.
 InvSVY:  IOpt=1 It=  1 EMax= 1.78D-15
 Solved reduced A of dimension   309 with    39 vectors.
 End of Minotr F.D. properties file   721 does not exist.
 End of Minotr F.D. properties file   722 does not exist.
 End of Minotr F.D. properties file   788 does not exist.

 **********************************************************************

            Population analysis using the SCF density.

 **********************************************************************

 Orbital symmetries:
 Alpha Orbitals:
       Occupied  (A) (A) (A) (A) (A) (A) (A) (A) (A) (A) (A) (A)
                 (A) (A) (A) (A) (A) (A) (A) (A) (A) (A) (A) (A)
                 (A) (A) (A) (A) (A) (A) (A) (A) (A) (A) (A)
       Virtual   (A) (A) (A) (A) (A) (A) (A) (A) (A) (A) (A) (A)
                 (A) (A) (A) (A) (A) (A) (A) (A) (A) (A) (A) (A)
                 (A) (A) (A) (A) (A) (A) (A) (A) (A) (A) (A) (A)
                 (A) (A) (A) (A) (A) (A) (A) (A) (A) (A) (A) (A)
                 (A) (A) (A) (A) (A) (A) (A) (A) (A) (A) (A) (A)
                 (A) (A) (A) (A) (A) (A) (A) (A) (A) (A) (A) (A)
                 (A) (A) (A) (A) (A) (A) (A) (A) (A) (A) (A) (A)
                 (A) (A) (A) (A) (A) (A) (A) (A) (A) (A) (A) (A)
                 (A) (A) (A) (A) (A) (A) (A) (A) (A) (A) (A) (A)
                 (A) (A) (A) (A) (A) (A) (A) (A) (A) (A) (A) (A)
                 (A) (A) (A) (A) (A) (A) (A) (A) (A) (A) (A) (A)
                 (A) (A) (A) (A) (A) (A) (A) (A) (A) (A) (A) (A)
                 (A) (A) (A) (A) (A) (A) (A) (A) (A) (A) (A) (A)
                 (A) (A) (A) (A) (A)
 Beta  Orbitals:
       Occupied  (A) (A) (A) (A) (A) (A) (A) (A) (A) (A) (A) (A)
                 (A) (A) (A) (A) (A) (A) (A) (A) (A) (A) (A) (A)
                 (A) (A) (A) (A) (A) (A) (A) (A) (A) (A)
       Virtual   (A) (A) (A) (A) (A) (A) (A) (A) (A) (A) (A) (A)
                 (A) (A) (A) (A) (A) (A) (A) (A) (A) (A) (A) (A)
                 (A) (A) (A) (A) (A) (A) (A) (A) (A) (A) (A) (A)
                 (A) (A) (A) (A) (A) (A) (A) (A) (A) (A) (A) (A)
                 (A) (A) (A) (A) (A) (A) (A) (A) (A) (A) (A) (A)
                 (A) (A) (A) (A) (A) (A) (A) (A) (A) (A) (A) (A)
                 (A) (A) (A) (A) (A) (A) (A) (A) (A) (A) (A) (A)
                 (A) (A) (A) (A) (A) (A) (A) (A) (A) (A) (A) (A)
                 (A) (A) (A) (A) (A) (A) (A) (A) (A) (A) (A) (A)
                 (A) (A) (A) (A) (A) (A) (A) (A) (A) (A) (A) (A)
                 (A) (A) (A) (A) (A) (A) (A) (A) (A) (A) (A) (A)
                 (A) (A) (A) (A) (A) (A) (A) (A) (A) (A) (A) (A)
                 (A) (A) (A) (A) (A) (A) (A) (A) (A) (A) (A) (A)
                 (A) (A) (A) (A) (A) (A)
 The electronic state is 2-A.
 Alpha  occ. eigenvalues --  -19.73708 -19.61120 -19.60314 -14.81059 -14.77866
 Alpha  occ. eigenvalues --  -14.75421 -10.67134 -10.55210 -10.55040  -1.19029
 Alpha  occ. eigenvalues --   -1.17666  -1.13971  -1.06793  -0.97844  -0.86367
 Alpha  occ. eigenvalues --   -0.74970  -0.66523  -0.64982  -0.61825  -0.57468
 Alpha  occ. eigenvalues --   -0.54574  -0.54319  -0.51181  -0.50277  -0.49725
 Alpha  occ. eigenvalues --   -0.47396  -0.47220  -0.38097  -0.37138  -0.35209
 Alpha  occ. eigenvalues --   -0.35020  -0.34007  -0.32757  -0.30812  -0.13679
 Alpha virt. eigenvalues --    0.02015   0.03974   0.04939   0.05957   0.06534
 Alpha virt. eigenvalues --    0.06864   0.07352   0.08450   0.10806   0.11050
 Alpha virt. eigenvalues --    0.11564   0.12232   0.12542   0.13301   0.14495
 Alpha virt. eigenvalues --    0.15822   0.17094   0.17243   0.18395   0.20149
 Alpha virt. eigenvalues --    0.21193   0.22512   0.23207   0.23582   0.24114
 Alpha virt. eigenvalues --    0.25047   0.25249   0.26557   0.27122   0.27712
 Alpha virt. eigenvalues --    0.28967   0.29562   0.29729   0.30623   0.31256
 Alpha virt. eigenvalues --    0.32436   0.32671   0.33629   0.34260   0.36234
 Alpha virt. eigenvalues --    0.36909   0.38643   0.39392   0.41213   0.43383
 Alpha virt. eigenvalues --    0.44226   0.46465   0.51991   0.53416   0.53579
 Alpha virt. eigenvalues --    0.66460   0.74921   0.75574   0.78601   0.81989
 Alpha virt. eigenvalues --    0.85073   0.86989   0.89441   0.92227   0.93177
 Alpha virt. eigenvalues --    0.96956   0.97837   0.98824   1.01033   1.03073
 Alpha virt. eigenvalues --    1.03653   1.04305   1.06330   1.09362   1.10244
 Alpha virt. eigenvalues --    1.13362   1.15529   1.19742   1.21912   1.22217
 Alpha virt. eigenvalues --    1.24194   1.27402   1.28725   1.29842   1.31447
 Alpha virt. eigenvalues --    1.33260   1.36240   1.37772   1.39363   1.40939
 Alpha virt. eigenvalues --    1.42154   1.43067   1.43781   1.46071   1.51061
 Alpha virt. eigenvalues --    1.51558   1.52610   1.54062   1.54767   1.58503
 Alpha virt. eigenvalues --    1.61487   1.62437   1.65685   1.69992   1.79141
 Alpha virt. eigenvalues --    1.83023   1.85002   1.88711   1.89455   1.93930
 Alpha virt. eigenvalues --    1.95408   1.95495   1.99477   2.01610   2.02560
 Alpha virt. eigenvalues --    2.05947   2.07773   2.10155   2.13192   2.15426
 Alpha virt. eigenvalues --    2.18743   2.20597   2.24168   2.27728   2.29941
 Alpha virt. eigenvalues --    2.33076   2.34532   2.36055   2.38800   2.42402
 Alpha virt. eigenvalues --    2.47586   2.48608   2.54194   2.56007   2.59109
 Alpha virt. eigenvalues --    2.60120   2.63719   2.65100   2.75530   2.75986
 Alpha virt. eigenvalues --    2.78373   2.80309   2.84615   2.89904   2.91638
 Alpha virt. eigenvalues --    2.94373   2.99701   3.05411   3.11250   3.17010
 Alpha virt. eigenvalues --    3.21208   3.22501   3.31215   3.34288   3.38649
 Alpha virt. eigenvalues --    3.54712   3.76636   4.04598   4.12757   4.25193
 Alpha virt. eigenvalues --    4.29865   4.32179   4.50649   4.56214   4.71331
 Alpha virt. eigenvalues --    4.76126
  Beta  occ. eigenvalues --  -19.73710 -19.61047 -19.60182 -14.80908 -14.77255
  Beta  occ. eigenvalues --  -14.75112 -10.67062 -10.55297 -10.54852  -1.18472
  Beta  occ. eigenvalues --   -1.17641  -1.12982  -1.06461  -0.96832  -0.85342
  Beta  occ. eigenvalues --   -0.73795  -0.66038  -0.64950  -0.61037  -0.57217
  Beta  occ. eigenvalues --   -0.54456  -0.52503  -0.50880  -0.49974  -0.49528
  Beta  occ. eigenvalues --   -0.46923  -0.45434  -0.37276  -0.36690  -0.33783
  Beta  occ. eigenvalues --   -0.33322  -0.32476  -0.31866  -0.27379
  Beta virt. eigenvalues --    0.01691   0.01771   0.03555   0.04383   0.05521
  Beta virt. eigenvalues --    0.06011   0.06481   0.08049   0.08134   0.09912
  Beta virt. eigenvalues --    0.10664   0.11400   0.12027   0.13060   0.13308
  Beta virt. eigenvalues --    0.14252   0.15263   0.16397   0.17372   0.18201
  Beta virt. eigenvalues --    0.20088   0.21029   0.22243   0.23068   0.23492
  Beta virt. eigenvalues --    0.24017   0.24575   0.25427   0.26100   0.27112
  Beta virt. eigenvalues --    0.27405   0.28920   0.29287   0.29566   0.30690
  Beta virt. eigenvalues --    0.31124   0.32258   0.32601   0.33236   0.34282
  Beta virt. eigenvalues --    0.35973   0.36479   0.38611   0.38989   0.40483
  Beta virt. eigenvalues --    0.43185   0.44101   0.46344   0.52498   0.53633
  Beta virt. eigenvalues --    0.53705   0.66726   0.74773   0.75483   0.79758
  Beta virt. eigenvalues --    0.82298   0.85054   0.87162   0.89608   0.92245
  Beta virt. eigenvalues --    0.93324   0.97106   0.97903   1.00768   1.01138
  Beta virt. eigenvalues --    1.03326   1.04683   1.06009   1.06516   1.09533
  Beta virt. eigenvalues --    1.10392   1.13472   1.15590   1.19686   1.21810
  Beta virt. eigenvalues --    1.22254   1.24326   1.27817   1.29036   1.30234
  Beta virt. eigenvalues --    1.31584   1.33392   1.36505   1.38189   1.40005
  Beta virt. eigenvalues --    1.41681   1.42456   1.43099   1.43978   1.46405
  Beta virt. eigenvalues --    1.51279   1.51817   1.52659   1.54557   1.54962
  Beta virt. eigenvalues --    1.59475   1.61594   1.62957   1.66072   1.70424
  Beta virt. eigenvalues --    1.79235   1.83397   1.85137   1.88893   1.89751
  Beta virt. eigenvalues --    1.94373   1.95527   1.95682   1.99673   2.02161
  Beta virt. eigenvalues --    2.02809   2.06198   2.08063   2.10311   2.13776
  Beta virt. eigenvalues --    2.15470   2.19207   2.20729   2.24668   2.28357
  Beta virt. eigenvalues --    2.30376   2.33419   2.34699   2.36712   2.39367
  Beta virt. eigenvalues --    2.42692   2.48245   2.49055   2.54369   2.56323
  Beta virt. eigenvalues --    2.59759   2.60687   2.64249   2.65620   2.76006
  Beta virt. eigenvalues --    2.76706   2.79176   2.80477   2.84664   2.90453
  Beta virt. eigenvalues --    2.92506   2.94654   3.00064   3.05684   3.11605
  Beta virt. eigenvalues --    3.17279   3.21656   3.22528   3.31357   3.34560
  Beta virt. eigenvalues --    3.38963   3.54733   3.77192   4.04867   4.12739
  Beta virt. eigenvalues --    4.25295   4.29874   4.32393   4.50526   4.57216
  Beta virt. eigenvalues --    4.71364   4.76968
          Condensed to atoms (all electrons):
               1          2          3          4          5          6
     1  N    8.690111  -0.589801  -0.148027   0.283550  -0.790938   0.010389
     2  N   -0.589801   7.509386   0.213323  -0.209929   0.407736  -0.046453
     3  C   -0.148027   0.213323   5.963224   0.058289  -0.130958   0.425447
     4  C    0.283550  -0.209929   0.058289   5.554359   0.158294  -0.040486
     5  N   -0.790938   0.407736  -0.130958   0.158294   7.799023   0.000477
     6  H    0.010389  -0.046453   0.425447  -0.040486   0.000477   0.455110
     7  H    0.024235  -0.016302  -0.022079   0.394032  -0.059268   0.000742
     8  H    0.061508  -0.005711   0.002101  -0.000429  -0.011004  -0.000004
     9  C   -0.084398   0.254493  -0.170582  -0.012465   0.055979  -0.011248
    10  O   -0.000637  -0.161483  -0.041321   0.037932  -0.004546  -0.003893
    11  O   -0.070288  -0.095835   0.047078  -0.007804   0.001220  -0.000205
    12  H   -0.003952   0.004267   0.000772  -0.000722   0.000215   0.000000
    13  O   -0.002916  -0.017218  -0.007008   0.007592  -0.020047   0.000009
    14  H    0.000464  -0.002019   0.000538  -0.000053   0.000165  -0.000000
               7          8          9         10         11         12
     1  N    0.024235   0.061508  -0.084398  -0.000637  -0.070288  -0.003952
     2  N   -0.016302  -0.005711   0.254493  -0.161483  -0.095835   0.004267
     3  C   -0.022079   0.002101  -0.170582  -0.041321   0.047078   0.000772
     4  C    0.394032  -0.000429  -0.012465   0.037932  -0.007804  -0.000722
     5  N   -0.059268  -0.011004   0.055979  -0.004546   0.001220   0.000215
     6  H    0.000742  -0.000004  -0.011248  -0.003893  -0.000205   0.000000
     7  H    0.494402  -0.000004  -0.001200  -0.000185   0.000033  -0.000000
     8  H   -0.000004   0.269293   0.003257   0.002075   0.083757  -0.003809
     9  C   -0.001200   0.003257   4.553094   0.403244   0.216616  -0.000244
    10  O   -0.000185   0.002075   0.403244   8.642900  -0.127762   0.000018
    11  O    0.000033   0.083757   0.216616  -0.127762   8.852124   0.001491
    12  H   -0.000000  -0.003809  -0.000244   0.000018   0.001491   0.245265
    13  O    0.000015   0.105208  -0.003392  -0.001691  -0.035358   0.286551
    14  H   -0.000000  -0.007010  -0.000573   0.000032   0.003735  -0.014028
              13         14
     1  N   -0.002916   0.000464
     2  N   -0.017218  -0.002019
     3  C   -0.007008   0.000538
     4  C    0.007592  -0.000053
     5  N   -0.020047   0.000165
     6  H    0.000009  -0.000000
     7  H    0.000015  -0.000000
     8  H    0.105208  -0.007010
     9  C   -0.003392  -0.000573
    10  O   -0.001691   0.000032
    11  O   -0.035358   0.003735
    12  H    0.286551  -0.014028
    13  O    8.083704   0.247142
    14  H    0.247142   0.250526
          Atomic-Atomic Spin Densities.
               1          2          3          4          5          6
     1  N    0.951816  -0.299045   0.117722   0.017901  -0.376914  -0.001399
     2  N   -0.299045   0.322393  -0.200526   0.010600   0.123128   0.003628
     3  C    0.117722  -0.200526   0.515915  -0.031129  -0.082469  -0.006723
     4  C    0.017901   0.010600  -0.031129  -0.152799   0.012236   0.002266
     5  N   -0.376914   0.123128  -0.082469   0.012236   0.557940   0.000495
     6  H   -0.001399   0.003628  -0.006723   0.002266   0.000495  -0.013329
     7  H    0.002229  -0.000606  -0.002315   0.004412  -0.002704   0.000012
     8  H   -0.003913  -0.000068   0.000917  -0.000422  -0.001032   0.000001
     9  C   -0.034178   0.111665  -0.044403   0.008490   0.000313   0.001545
    10  O    0.006656  -0.034084   0.026142  -0.004143  -0.001166   0.000433
    11  O    0.020806  -0.028693   0.011520  -0.002283  -0.002327   0.000091
    12  H   -0.000047  -0.000066   0.000005   0.000014  -0.000245   0.000000
    13  O    0.001832  -0.000213  -0.001173   0.000483   0.001924  -0.000003
    14  H    0.000175  -0.000125   0.000053  -0.000037   0.000037   0.000000
               7          8          9         10         11         12
     1  N    0.002229  -0.003913  -0.034178   0.006656   0.020806  -0.000047
     2  N   -0.000606  -0.000068   0.111665  -0.034084  -0.028693  -0.000066
     3  C   -0.002315   0.000917  -0.044403   0.026142   0.011520   0.000005
     4  C    0.004412  -0.000422   0.008490  -0.004143  -0.002283   0.000014
     5  N   -0.002704  -0.001032   0.000313  -0.001166  -0.002327  -0.000245
     6  H    0.000012   0.000001   0.001545   0.000433   0.000091   0.000000
     7  H    0.002899   0.000000   0.000024   0.000001  -0.000001   0.000000
     8  H    0.000000  -0.001548  -0.001187   0.000110   0.001473  -0.000056
     9  C    0.000024  -0.001187   0.166767  -0.062344  -0.045642  -0.000016
    10  O    0.000001   0.000110  -0.062344   0.117969   0.014314  -0.000001
    11  O   -0.000001   0.001473  -0.045642   0.014314   0.066778   0.000017
    12  H    0.000000  -0.000056  -0.000016  -0.000001   0.000017   0.000080
    13  O    0.000000   0.001689   0.001201  -0.000084  -0.000799   0.000271
    14  H    0.000000  -0.000061  -0.000127   0.000005   0.000167   0.000062
              13         14
     1  N    0.001832   0.000175
     2  N   -0.000213  -0.000125
     3  C   -0.001173   0.000053
     4  C    0.000483  -0.000037
     5  N    0.001924   0.000037
     6  H   -0.000003   0.000000
     7  H    0.000000   0.000000
     8  H    0.001689  -0.000061
     9  C    0.001201  -0.000127
    10  O   -0.000084   0.000005
    11  O   -0.000799   0.000167
    12  H    0.000271   0.000062
    13  O   -0.003296  -0.000131
    14  H   -0.000131   0.000074
 Mulliken charges and spin densities:
               1          2
     1  N   -0.379300   0.403642
     2  N   -0.244456   0.007986
     3  C   -0.190798   0.303537
     4  C   -0.222158  -0.134410
     5  N   -0.406349   0.229216
     6  H    0.210115  -0.012983
     7  H    0.185579   0.003951
     8  H    0.500770  -0.004097
     9  C    0.797418   0.102110
    10  O   -0.744684   0.063809
    11  O   -0.868802   0.035423
    12  H    0.484176   0.000021
    13  O   -0.642593   0.001702
    14  H    0.521081   0.000093
 Sum of Mulliken charges =  -1.00000   1.00000
 Mulliken charges and spin densities with hydrogens summed into heavy atoms:
               1          2
     1  N   -0.379300   0.403642
     2  N   -0.244456   0.007986
     3  C    0.019318   0.290554
     4  C   -0.036579  -0.130459
     5  N   -0.406349   0.229216
     9  C    0.797418   0.102110
    10  O   -0.744684   0.063809
    11  O   -0.868802   0.035423
    13  O    0.863434  -0.002281
 APT charges:
               1
     1  N   -0.490176
     2  N   -0.243068
     3  C   -0.701427
     4  C   -0.490553
     5  N   -0.431513
     6  H    0.580671
     7  H    0.766380
     8  H    0.335937
     9  C    0.438109
    10  O   -0.520830
    11  O   -0.754009
    12  H    0.748190
    13  O   -0.943452
    14  H    0.705741
 Sum of APT charges =  -1.00000
 APT charges with hydrogens summed into heavy atoms:
               1
     1  N   -0.490176
     2  N   -0.243068
     3  C   -0.120756
     4  C    0.275827
     5  N   -0.431513
     9  C    0.438109
    10  O   -0.520830
    11  O   -0.754009
    13  O    0.846416
 Electronic spatial extent (au):  <R**2>=           1291.9306
 Charge=             -1.0000 electrons
 Dipole moment (field-independent basis, Debye):
    X=             -5.3473    Y=             -7.5621    Z=              3.1198  Tot=              9.7731
 Quadrupole moment (field-independent basis, Debye-Ang):
   XX=            -40.8095   YY=            -82.8888   ZZ=            -57.5002
   XY=             17.3753   XZ=             -7.8665   YZ=             -3.3198
 Traceless Quadrupole moment (field-independent basis, Debye-Ang):
   XX=             19.5900   YY=            -22.4893   ZZ=              2.8993
   XY=             17.3753   XZ=             -7.8665   YZ=             -3.3198
 Octapole moment (field-independent basis, Debye-Ang**2):
  XXX=            -66.7141  YYY=            -56.1428  ZZZ=              2.4319  XYY=            -30.6391
  XXY=            -35.9027  XXZ=             27.8086  XZZ=            -15.6393  YZZ=              0.4230
  YYZ=              7.8710  XYZ=              9.8846
 Hexadecapole moment (field-independent basis, Debye-Ang**3):
 XXXX=           -641.2145 YYYY=           -911.2414 ZZZZ=            -68.6083 XXXY=             98.9158
 XXXZ=            -85.2956 YYYX=            111.3282 YYYZ=            -10.8662 ZZZX=             -7.8669
 ZZZY=             -3.0577 XXYY=           -239.1033 XXZZ=           -162.8023 YYZZ=           -139.0230
 XXYZ=            -29.4177 YYXZ=            -14.6941 ZZXY=             13.2813
 N-N= 4.451308508167D+02 E-N=-2.091222277425D+03  KE= 5.023828346652D+02
  Exact polarizability:   0.000   0.000   0.000   0.000   0.000   0.000
 Approx polarizability: 110.178  -3.684 130.522  -0.297   1.894  65.160
                          Isotropic Fermi Contact Couplings
        Atom                 a.u.       MegaHertz       Gauss      10(-4) cm-1
     1  N(14)              0.10402      33.60836      11.99230      11.21054
     2  N(14)              0.00267       0.86303       0.30795       0.28787
     3  C(13)              0.03773      42.41434      15.13449      14.14790
     4  C(13)             -0.02740     -30.80750     -10.99288     -10.27628
     5  N(14)              0.05542      17.90590       6.38927       5.97276
     6  H(1)              -0.00418     -18.66523      -6.66022      -6.22605
     7  H(1)               0.00094       4.18137       1.49202       1.39476
     8  H(1)              -0.00044      -1.95931      -0.69913      -0.65355
     9  C(13)              0.01578      17.74112       6.33047       5.91780
    10  O(17)              0.01472      -8.92286      -3.18390      -2.97634
    11  O(17)              0.00779      -4.72525      -1.68609      -1.57617
    12  H(1)              -0.00002      -0.07767      -0.02771      -0.02591
    13  O(17)             -0.00378       2.29355       0.81840       0.76505
    14  H(1)              -0.00009      -0.39795      -0.14200      -0.13274
 --------------------------------------------------------
       Center         ----  Spin Dipole Couplings  ----
                      3XX-RR        3YY-RR        3ZZ-RR
 --------------------------------------------------------
     1   Atom       -0.436727     -0.439360      0.876087
     2   Atom       -0.151147     -0.132766      0.283913
     3   Atom       -0.117252     -0.124122      0.241374
     4   Atom        0.054095      0.048667     -0.102762
     5   Atom       -0.250421     -0.253062      0.503483
     6   Atom       -0.006681      0.008435     -0.001754
     7   Atom        0.003558      0.002301     -0.005859
     8   Atom        0.013257     -0.005176     -0.008081
     9   Atom       -0.071434     -0.060002      0.131435
    10   Atom       -0.124280     -0.129922      0.254201
    11   Atom       -0.080424     -0.069822      0.150246
    12   Atom        0.003714     -0.000802     -0.002912
    13   Atom       -0.003763     -0.003795      0.007558
    14   Atom        0.003594     -0.001503     -0.002091
 --------------------------------------------------------
                        XY            XZ            YZ
 --------------------------------------------------------
     1   Atom        0.010783     -0.131171     -0.086296
     2   Atom       -0.007027     -0.018134     -0.009020
     3   Atom        0.007754     -0.022827     -0.009575
     4   Atom        0.006904      0.009246      0.004410
     5   Atom        0.005412     -0.031811     -0.028899
     6   Atom        0.018690      0.000053      0.001272
     7   Atom        0.003371      0.000565      0.000218
     8   Atom       -0.002368      0.000278     -0.000079
     9   Atom       -0.007620      0.001526      0.008644
    10   Atom       -0.002232      0.011551      0.022198
    11   Atom       -0.002198      0.011324      0.031789
    12   Atom        0.003260     -0.000788     -0.000324
    13   Atom       -0.001774      0.004131      0.002270
    14   Atom        0.000515     -0.001177     -0.000080
 --------------------------------------------------------


 ---------------------------------------------------------------------------------
              Anisotropic Spin Dipole Couplings in Principal Axis System
 ---------------------------------------------------------------------------------

       Atom             a.u.   MegaHertz   Gauss  10(-4) cm-1        Axes

              Baa    -0.4506   -17.379    -6.201    -5.797  0.9263 -0.3707  0.0675
     1 N(14)  Bbb    -0.4441   -17.129    -6.112    -5.714  0.3637  0.9265  0.0967
              Bcc     0.8947    34.508    12.313    11.511 -0.0984 -0.0650  0.9930
 
              Baa    -0.1544    -5.957    -2.125    -1.987  0.9445  0.3252  0.0458
     2 N(14)  Bbb    -0.1304    -5.029    -1.795    -1.678 -0.3258  0.9454  0.0063
              Bcc     0.2848    10.986     3.920     3.665 -0.0412 -0.0209  0.9989
 
              Baa    -0.1292   -17.341    -6.188    -5.784 -0.5611  0.8277 -0.0132
     3 C(13)  Bbb    -0.1139   -15.280    -5.452    -5.097  0.8253  0.5606  0.0681
              Bcc     0.2431    32.621    11.640    10.881 -0.0638 -0.0274  0.9976
 
              Baa    -0.1034   -13.877    -4.952    -4.629 -0.0574 -0.0263  0.9980
     4 C(13)  Bbb     0.0440     5.902     2.106     1.969 -0.5573  0.8302 -0.0102
              Bcc     0.0594     7.975     2.846     2.660  0.8283  0.5568  0.0624
 
              Baa    -0.2573    -9.925    -3.541    -3.310 -0.6019  0.7986  0.0052
     5 N(14)  Bbb    -0.2486    -9.588    -3.421    -3.198  0.7975  0.6007  0.0568
              Bcc     0.5059    19.513     6.963     6.509 -0.0423 -0.0383  0.9984
 
              Baa    -0.0193   -10.302    -3.676    -3.436  0.8280 -0.5595  0.0380
     6 H(1)   Bbb    -0.0018    -0.950    -0.339    -0.317 -0.0580 -0.0181  0.9982
              Bcc     0.0211    11.252     4.015     3.753  0.5578  0.8286  0.0474
 
              Baa    -0.0059    -3.144    -1.122    -1.049 -0.0588 -0.0024  0.9983
     7 H(1)   Bbb    -0.0005    -0.263    -0.094    -0.088 -0.6363  0.7706 -0.0357
              Bcc     0.0064     3.407     1.216     1.136  0.7692  0.6373  0.0469
 
              Baa    -0.0081    -4.314    -1.539    -1.439 -0.0110  0.0182  0.9998
     8 H(1)   Bbb    -0.0055    -2.921    -1.042    -0.974  0.1256  0.9919 -0.0167
              Bcc     0.0136     7.235     2.582     2.413  0.9920 -0.1254  0.0132
 
              Baa    -0.0754   -10.115    -3.609    -3.374  0.8899  0.4554 -0.0256
     9 C(13)  Bbb    -0.0565    -7.576    -2.703    -2.527 -0.4561  0.8891 -0.0372
              Bcc     0.1318    17.691     6.312     5.901  0.0058  0.0448  0.9990
 
              Baa    -0.1323     9.572     3.416     3.193  0.3526  0.9336 -0.0642
    10 O(17)  Bbb    -0.1235     8.939     3.190     2.982  0.9353 -0.3538 -0.0078
              Bcc     0.2558   -18.511    -6.605    -6.175  0.0300  0.0573  0.9979
 
              Baa    -0.0826     5.979     2.133     1.994  0.9101  0.4024 -0.0992
    11 O(17)  Bbb    -0.0726     5.255     1.875     1.753 -0.4118  0.9048 -0.1081
              Bcc     0.1553   -11.234    -4.009    -3.747  0.0462  0.1393  0.9892
 
              Baa    -0.0030    -1.606    -0.573    -0.536  0.1594 -0.0912  0.9830
    12 H(1)   Bbb    -0.0025    -1.332    -0.475    -0.444 -0.4438  0.8828  0.1539
              Bcc     0.0055     2.938     1.049     0.980  0.8818  0.4608 -0.1002
 
              Baa    -0.0070     0.506     0.181     0.169  0.7260  0.6176 -0.3025
    13 O(17)  Bbb    -0.0021     0.153     0.055     0.051 -0.6249  0.7761  0.0847
              Bcc     0.0091    -0.659    -0.235    -0.220  0.2870  0.1275  0.9494
 
              Baa    -0.0023    -1.241    -0.443    -0.414  0.1973 -0.0279  0.9799
    14 H(1)   Bbb    -0.0016    -0.829    -0.296    -0.276 -0.0890  0.9950  0.0462
              Bcc     0.0039     2.069     0.738     0.690  0.9763  0.0963 -0.1938
 

 ---------------------------------------------------------------------------------

 D2PCM: PCM CHGder 2nd derivatives, FixD1E=F FixD2E=F DoIter=F DoCFld=F I1PDM=0
 Calling FoFJK, ICntrl=    100147 FMM=F ISym2X=0 I1Cent= 0 IOpClX= 1 NMat=1 NMatS=1 NMatT=0.
 ***** Axes restored to original set *****
 -------------------------------------------------------------------
 Center     Atomic                   Forces (Hartrees/Bohr)
 Number     Number              X              Y              Z
 -------------------------------------------------------------------
      1        7          -0.035265159   -0.006737683    0.002680934
      2        7           0.004956499    0.004209611   -0.004271452
      3        6           0.003863853    0.001694666    0.000484728
      4        6           0.007480713    0.008335506    0.004227882
      5        7          -0.005720068    0.004461403   -0.003298615
      6        1           0.003511586    0.000921109    0.001253500
      7        1           0.000163022    0.001022322    0.000752289
      8        1          -0.004242054   -0.040624474   -0.017748968
      9        6          -0.006188151   -0.055116461   -0.009041946
     10        8          -0.001348713    0.039700042    0.006930382
     11        8           0.028739243   -0.014848151   -0.001447549
     12        1           0.005672622   -0.006175325    0.013473320
     13        8          -0.078552213    0.095087357    0.066449939
     14        1           0.076928819   -0.031929924   -0.060444444
 -------------------------------------------------------------------
 Cartesian Forces:  Max     0.095087357 RMS     0.030815995
 FormGI is forming the generalized inverse of G from B-inverse, IUseBI=4.

 GradGradGradGradGradGradGradGradGradGradGradGradGradGradGradGradGradGrad
 Berny optimization.
 Internal  Forces:  Max     0.101776394 RMS     0.016313250
 Search for a saddle point.
 Step number   1 out of a maximum of   80
 All quantities printed in internal units (Hartrees-Bohrs-Radians)
 Swapping is turned off.
 Second derivative matrix not updated -- analytic derivatives used.
 ITU=  0
     Eigenvalues ---   -0.04003  -0.03748  -0.00069   0.00151   0.00273
     Eigenvalues ---    0.00385   0.00554   0.00795   0.01821   0.02452
     Eigenvalues ---    0.03268   0.04461   0.04973   0.05349   0.05608
     Eigenvalues ---    0.06720   0.08178   0.09056   0.09565   0.10998
     Eigenvalues ---    0.12568   0.18375   0.19270   0.22163   0.24055
     Eigenvalues ---    0.27923   0.29822   0.37436   0.38082   0.39508
     Eigenvalues ---    0.41610   0.43769   0.45678   0.51798   0.56087
     Eigenvalues ---    0.79127
 Eigenvectors required to have negative eigenvalues:
                          R10       R11       A15       A14       A3
   1                   -0.78158   0.50298  -0.20121   0.14445   0.12827
                          A2        A22       R3        A16       A20
   1                   -0.12555  -0.09033   0.07099   0.05742   0.05441
 RFO step:  Lambda0=3.577103859D-03 Lambda=-9.69707808D-02.
 Linear search not attempted -- option 19 set.
 Maximum step size (   0.300) exceeded in Quadratic search.
    -- Step size scaled by   0.283
 Iteration  1 RMS(Cart)=  0.04011031 RMS(Int)=  0.00182541
 Iteration  2 RMS(Cart)=  0.00238110 RMS(Int)=  0.00059348
 Iteration  3 RMS(Cart)=  0.00000821 RMS(Int)=  0.00059344
 Iteration  4 RMS(Cart)=  0.00000001 RMS(Int)=  0.00059344
 Variable       Old X    -DE/DX   Delta X   Delta X   Delta X     New X
                                 (Linear)    (Quad)   (Total)
    R1        2.65585  -0.00350   0.00000   0.00026   0.00104   2.65689
    R2        2.56019   0.00265   0.00000   0.00168   0.00190   2.56209
    R3        3.61224  -0.01308   0.00000   0.10935   0.10930   3.72154
    R4        2.62916   0.00910   0.00000   0.00463   0.00458   2.63374
    R5        2.62744  -0.01035   0.00000  -0.01185  -0.01162   2.61582
    R6        2.60182  -0.00517   0.00000  -0.00128  -0.00167   2.60015
    R7        2.03234   0.00118   0.00000   0.00053   0.00053   2.03286
    R8        2.54171   0.00805   0.00000   0.00206   0.00185   2.54357
    R9        2.04449   0.00037   0.00000   0.00018   0.00018   2.04467
   R10        3.45441  -0.02368   0.00000  -0.15349  -0.15383   3.30058
   R11        2.41341  -0.05794   0.00000  -0.13809  -0.13809   2.27532
   R12        2.32295   0.04018   0.00000   0.01631   0.01631   2.33926
   R13        2.48769  -0.01342   0.00000  -0.00510  -0.00519   2.48250
   R14        1.81782   0.01264   0.00000   0.00578   0.00578   1.82360
   R15        2.24451  -0.10178   0.00000  -0.14803  -0.14803   2.09648
    A1        1.89314  -0.01102   0.00000  -0.01174  -0.01272   1.88041
    A2        1.65179   0.00994   0.00000  -0.01904  -0.02039   1.63141
    A3        2.70033   0.00134   0.00000   0.04938   0.04900   2.74933
    A4        1.87785   0.00885   0.00000   0.00937   0.00965   1.88749
    A5        2.19599  -0.01281   0.00000  -0.01378  -0.01337   2.18262
    A6        2.20445   0.00409   0.00000   0.00353   0.00283   2.20729
    A7        1.82528  -0.00224   0.00000  -0.00288  -0.00290   1.82239
    A8        2.10913   0.00476   0.00000   0.00527   0.00528   2.11441
    A9        2.34848  -0.00253   0.00000  -0.00231  -0.00232   2.34616
   A10        1.95997  -0.00508   0.00000  -0.00412  -0.00421   1.95575
   A11        2.22547   0.00141   0.00000   0.00053   0.00058   2.22605
   A12        2.09774   0.00368   0.00000   0.00359   0.00364   2.10138
   A13        1.86141   0.00972   0.00000   0.01101   0.01162   1.87303
   A14        1.69990  -0.00812   0.00000  -0.00459  -0.00480   1.69510
   A15        2.22459   0.00903   0.00000  -0.03837  -0.03836   2.18623
   A16        2.34907  -0.00085   0.00000   0.04515   0.04519   2.39426
   A17        2.07746  -0.00313   0.00000   0.00075   0.00059   2.07805
   A18        2.03552   0.00003   0.00000   0.00171   0.00202   2.03755
   A19        2.17020   0.00310   0.00000  -0.00245  -0.00261   2.16759
   A20        1.82819   0.01099   0.00000   0.03979   0.03955   1.86774
   A21        1.94931  -0.00962   0.00000  -0.00843  -0.00845   1.94086
   A22        1.53196   0.02676   0.00000   0.06276   0.06272   1.59468
   A23        1.94040  -0.01192   0.00000  -0.01528  -0.01536   1.92504
    D1        0.11560  -0.00199   0.00000  -0.01339  -0.01234   0.10326
    D2       -3.12698  -0.00024   0.00000  -0.02203  -0.02063   3.13558
    D3        3.07560  -0.00087   0.00000   0.03988   0.03783   3.11343
    D4       -0.16699   0.00088   0.00000   0.03124   0.02955  -0.13744
    D5       -0.10190   0.00209   0.00000   0.01244   0.01160  -0.09030
    D6       -2.80842   0.00021   0.00000  -0.07309  -0.07424  -2.88266
    D7        0.10294   0.00023   0.00000  -0.03338  -0.03277   0.07016
    D8        3.11275   0.00018   0.00000  -0.01353  -0.01376   3.09899
    D9        2.83183   0.00004   0.00000   0.04615   0.04733   2.87915
   D10       -0.44154  -0.00000   0.00000   0.06601   0.06634  -0.37520
   D11       -0.08040   0.00036   0.00000   0.00805   0.00726  -0.07314
   D12        3.08354   0.00074   0.00000   0.00511   0.00489   3.08843
   D13       -3.12037  -0.00015   0.00000   0.01803   0.01689  -3.10349
   D14        0.04357   0.00023   0.00000   0.01508   0.01452   0.05809
   D15       -2.97182  -0.00260   0.00000  -0.00471  -0.00506  -2.97688
   D16        0.16753  -0.00138   0.00000  -0.00262  -0.00233   0.16520
   D17        0.05023  -0.00055   0.00000  -0.01491  -0.01475   0.03549
   D18       -3.09360   0.00067   0.00000  -0.01282  -0.01202  -3.10562
   D19        0.01904   0.00030   0.00000  -0.00109  -0.00077   0.01827
   D20       -3.11736   0.00008   0.00000  -0.00178  -0.00133  -3.11869
   D21        3.13370  -0.00001   0.00000   0.00260   0.00221   3.13592
   D22       -0.00270  -0.00023   0.00000   0.00191   0.00165  -0.00104
   D23        0.05219  -0.00128   0.00000  -0.00679  -0.00648   0.04571
   D24       -3.09417  -0.00108   0.00000  -0.00617  -0.00597  -3.10014
   D25       -0.03939   0.00005   0.00000   0.03662   0.03627  -0.00312
   D26       -3.03399  -0.00104   0.00000   0.02538   0.02487  -3.00912
   D27        0.63722   0.00168   0.00000  -0.02216  -0.02195   0.61526
   D28        2.59091  -0.00132   0.00000  -0.01378  -0.01349   2.57742
   D29       -2.68839   0.00157   0.00000  -0.00268  -0.00296  -2.69135
   D30       -0.73470  -0.00143   0.00000   0.00571   0.00550  -0.72920
   D31       -0.04642  -0.00038   0.00000  -0.02680  -0.02765  -0.07407
   D32        3.09279   0.00091   0.00000  -0.02459  -0.02476   3.06803
         Item               Value     Threshold  Converged?
 Maximum Force            0.101776     0.000450     NO 
 RMS     Force            0.016313     0.000300     NO 
 Maximum Displacement     0.148915     0.001800     NO 
 RMS     Displacement     0.040111     0.001200     NO 
 Predicted change in Energy=-2.802818D-02
 GradGradGradGradGradGradGradGradGradGradGradGradGradGradGradGradGradGrad

                          Input orientation:                          
 ---------------------------------------------------------------------
 Center     Atomic      Atomic             Coordinates (Angstroms)
 Number     Number       Type             X           Y           Z
 ---------------------------------------------------------------------
      1          7           0        0.568166   -0.947492   -0.321091
      2          7           0        0.249260    0.385865   -0.009319
      3          6           0        1.439768    1.078383    0.204099
      4          6           0        2.418071    0.115660    0.107672
      5          7           0        1.907036   -1.098243   -0.169801
      6          1           0        1.440035    2.134201    0.410199
      7          1           0        3.485083    0.245193    0.231809
      8          1           0       -1.319187   -1.490420   -0.467628
      9          6           0       -1.022749    0.930118   -0.052673
     10          8           0       -1.157557    2.154353    0.071534
     11          8           0       -2.018978    0.091460   -0.225715
     12          1           0       -1.118912   -3.273600   -0.427733
     13          8           0       -1.704626   -2.589227   -0.773872
     14          1           0       -2.599394   -2.484864   -0.126346
 ---------------------------------------------------------------------
                    Distance matrix (angstroms):
                    1          2          3          4          5
     1  N    0.000000
     2  N    1.405967   0.000000
     3  C    2.267088   1.393715   0.000000
     4  C    2.176299   2.188707   1.375940   0.000000
     5  N    1.355797   2.230818   2.257397   1.345997   0.000000
     6  H    3.285083   2.156530   1.075745   2.263313   3.317104
     7  H    3.199469   3.247843   2.208685   1.081991   2.111005
     8  H    1.969352   2.488075   3.829074   4.108231   3.263590
     9  C    2.475576   1.384231   2.480303   3.539533   3.565333
    10  O    3.571235   2.261244   2.814495   4.116150   4.475416
    11  O    2.789593   2.297478   3.622386   4.449622   4.102694
    12  H    2.875479   3.929204   5.087810   4.927878   3.735648
    13  O    2.840051   3.640519   4.928997   5.009008   3.953737
    14  H    3.526312   4.045937   5.396365   5.656186   4.715137
                    6          7          8          9         10
     6  H    0.000000
     7  H    2.789695   0.000000
     8  H    4.639156   5.155830   0.000000
     9  C    2.780175   4.568436   2.473675   0.000000
    10  O    2.619654   5.022419   3.687980   1.237883   0.000000
    11  O    4.067179   5.525183   1.746590   1.313683   2.255201
    12  H    6.041080   5.832123   1.794834   4.221511   5.451003
    13  O    5.796696   5.998201   1.204045   3.656620   4.849284
    14  H    6.159597   6.678499   1.656600   3.762092   4.862138
                   11         12         13         14
    11  O    0.000000
    12  H    3.489206   0.000000
    13  O    2.754156   0.965007   0.000000
    14  H    2.642764   1.704337   1.109411   0.000000
 Stoichiometry    C3H5N3O3(1-,2)
 Framework group  C1[X(C3H5N3O3)]
 Deg. of freedom    36
 Full point group                 C1      NOp   1
 Largest Abelian subgroup         C1      NOp   1
 Largest concise Abelian subgroup C1      NOp   1
                         Standard orientation:                         
 ---------------------------------------------------------------------
 Center     Atomic      Atomic             Coordinates (Angstroms)
 Number     Number       Type             X           Y           Z
 ---------------------------------------------------------------------
      1          7           0        0.138150   -1.052260   -0.086811
      2          7           0        0.493618    0.302697    0.033498
      3          6           0        1.884729    0.387230    0.043623
      4          6           0        2.307586   -0.922012    0.026596
      5          7           0        1.276170   -1.785779   -0.015770
      6          1           0        2.384060    1.339389    0.079536
      7          1           0        3.326238   -1.286188    0.047241
      8          1           0       -1.793228   -0.676898   -0.001795
      9          6           0       -0.394911    1.363633    0.001408
     10          8           0        0.048535    2.517747   -0.059670
     11          8           0       -1.673662    1.065107    0.039382
     12          1           0       -2.404799   -2.336339    0.304258
     13          8           0       -2.666331   -1.500140   -0.100231
     14          1           0       -3.320594   -0.927384    0.588740
 ---------------------------------------------------------------------
 Rotational constants (GHZ):           1.9348361           1.5203150           0.8537110
 Standard basis: 6-31+G(d,p) (6D, 7F)
 There are   196 symmetry adapted cartesian basis functions of A   symmetry.
 There are   196 symmetry adapted basis functions of A   symmetry.
   196 basis functions,   323 primitive gaussians,   196 cartesian basis functions
    35 alpha electrons       34 beta electrons
       nuclear repulsion energy       447.0078464870 Hartrees.
 NAtoms=   14 NActive=   14 NUniq=   14 SFac= 1.00D+00 NAtFMM=   60 NAOKFM=F Big=F
 Integral buffers will be    131072 words long.
 Raffenetti 2 integral format.
 Two-electron integral symmetry is turned on.
 ------------------------------------------------------------------------------
 Polarizable Continuum Model (PCM)
 =================================
 Model                : PCM.
 Atomic radii         : SMD-Coulomb.
 Polarization charges : Total charges.
 Charge compensation  : None.
 Solution method      : Matrix inversion.
 Cavity type          : VdW (van der Waals Surface) (Alpha=1.000).
 Cavity algorithm     : GePol (No added spheres)
                        Default sphere list used, NSphG=   14.
                        Lebedev-Laikov grids with approx.  5.0 points / Ang**2.
                        Smoothing algorithm: York/Karplus (Gamma=1.0000).
                        Polarization charges: spherical gaussians, with
                                              point-specific exponents (IZeta= 3).
                        Self-potential: point-specific (ISelfS= 7).
                        Self-field    : sphere-specific E.n sum rule (ISelfD= 2).
 1st derivatives      : Analytical E(r).r(x)/FMM algorithm (CHGder, D1EAlg=3).
                        Cavity 1st derivative terms included.
 Solvent              : Water, Eps=  78.355300 Eps(inf)=   1.777849
 ------------------------------------------------------------------------------
 Spheres list:
 ISph  on   Nord     Re0    Alpha      Xe            Ye            Ze
    1   N      1    1.8900  1.000      0.138150     -1.052260     -0.086811
    2   N      2    1.8900  1.000      0.493618      0.302697      0.033498
    3   C      3    1.8500  1.000      1.884729      0.387230      0.043623
    4   C      4    1.8500  1.000      2.307586     -0.922012      0.026596
    5   N      5    1.8900  1.000      1.276170     -1.785779     -0.015770
    6   H      6    1.2000  1.000      2.384060      1.339389      0.079536
    7   H      7    1.2000  1.000      3.326238     -1.286188      0.047241
    8   H      8    1.2000  1.000     -1.793228     -0.676898     -0.001795
    9   C      9    1.8500  1.000     -0.394911      1.363633      0.001408
   10   O     10    1.5200  1.000      0.048535      2.517747     -0.059670
   11   O     11    1.5200  1.000     -1.673662      1.065107      0.039382
   12   H     12    1.2000  1.000     -2.404799     -2.336339      0.304258
   13   O     13    1.5200  1.000     -2.666331     -1.500140     -0.100231
   14   H     14    1.2000  1.000     -3.320594     -0.927384      0.588740
 ------------------------------------------------------------------------------
 ------------------------------------------------------------------------------
 Atomic radii for non-electrostatic terms: SMD-CDS.
 ------------------------------------------------------------------------------
 Nuclear repulsion after PCM non-electrostatic terms =      447.0155742675 Hartrees.
 One-electron integrals computed using PRISM.
 NBasis=   196 RedAO= T EigKep=  2.54D-05  NBF=   196
 NBsUse=   196 1.00D-06 EigRej= -1.00D+00 NBFU=   196
 Initial guess from the checkpoint file:  "/scratch/gongke2021/TS-H-cycle/Gau-7780.chk"
 B after Tr=    -0.000000   -0.000000    0.000000
         Rot=    0.999699   -0.000301   -0.000006   -0.024515 Ang=  -2.81 deg.
 Initial guess <Sx>= 0.0000 <Sy>= 0.0000 <Sz>= 0.5000 <S**2>= 0.7637 S= 0.5068
 ExpMin= 4.38D-02 ExpMax= 5.48D+03 ExpMxC= 8.25D+02 IAcc=2 IRadAn=         4 AccDes= 0.00D+00
 Harris functional with IExCor= 1009 and IRadAn=       4 diagonalized for initial guess.
 HarFok:  IExCor= 1009 AccDes= 0.00D+00 IRadAn=         4 IDoV= 1 UseB2=F ITyADJ=14
 ICtDFT=  3500011 ScaDFX=  1.000000  1.000000  1.000000  1.000000
 FoFCou: FMM=F IPFlag=           0 FMFlag=      100000 FMFlg1=           0
         NFxFlg=           0 DoJE=T BraDBF=F KetDBF=T FulRan=T
         wScrn=  0.000000 ICntrl=       500 IOpCl=  0 I1Cent=   200000004 NGrid=           0
         NMat0=    1 NMatS0=      1 NMatT0=    0 NMatD0=    1 NMtDS0=    0 NMtDT0=    0
 Petite list used in FoFCou.
 Requested convergence on RMS density matrix=1.00D-08 within 128 cycles.
 Requested convergence on MAX density matrix=1.00D-06.
 Requested convergence on             energy=1.00D-06.
 No special actions if energy rises.
 Inv3:  Mode=1 IEnd=     4284075.
 Iteration    1 A*A^-1 deviation from unit magnitude is 3.11D-15 for    902.
 Iteration    1 A*A^-1 deviation from orthogonality  is 2.11D-15 for    753    624.
 Iteration    1 A^-1*A deviation from unit magnitude is 2.89D-15 for    902.
 Iteration    1 A^-1*A deviation from orthogonality  is 1.44D-15 for    701    472.
 Error on total polarization charges =  0.05924
 SCF Done:  E(UM062X) =  -507.108807054     A.U. after   16 cycles
            NFock= 16  Conv=0.75D-08     -V/T= 2.0092
 <Sx>= 0.0000 <Sy>= 0.0000 <Sz>= 0.5000 <S**2>= 0.7638 S= 0.5069
 <L.S>=  0.00000000000    
 SMD-CDS (non-electrostatic) energy       (kcal/mol) =       4.85
 (included in total energy above)
 Annihilation of the first spin contaminant:
 S**2 before annihilation     0.7638,   after     0.7501
 D1PCM: PCM CHGder 1st derivatives, ID1Alg=3 FixD1E=F DoIter=F DoCFld=F I1PDM=0.
 Calling FoFJK, ICntrl=      2127 FMM=F ISym2X=0 I1Cent= 0 IOpClX= 1 NMat=1 NMatS=1 NMatT=0.
 ***** Axes restored to original set *****
 -------------------------------------------------------------------
 Center     Atomic                   Forces (Hartrees/Bohr)
 Number     Number              X              Y              Z
 -------------------------------------------------------------------
      1        7          -0.022624627   -0.004799289    0.004419941
      2        7           0.004068479    0.004005325   -0.004389410
      3        6           0.002402150    0.001373202    0.000192329
      4        6           0.005890087    0.006097939    0.003219929
      5        7          -0.004349542    0.003834752   -0.003621702
      6        1           0.002960050    0.000648438    0.001061743
      7        1           0.000066393    0.000762345    0.000646603
      8        1          -0.010969630   -0.033634058   -0.017582524
      9        6          -0.005612552   -0.042429258   -0.006214604
     10        8          -0.001191160    0.030423570    0.005277838
     11        8           0.026251580   -0.015785687   -0.002138806
     12        1           0.004644568   -0.004702606    0.009673329
     13        8          -0.064556157    0.076622056    0.056526839
     14        1           0.063020360   -0.022416727   -0.047071504
 -------------------------------------------------------------------
 Cartesian Forces:  Max     0.076622056 RMS     0.024949448

 GradGradGradGradGradGradGradGradGradGradGradGradGradGradGradGradGradGrad
 Berny optimization.
 FormGI is forming the generalized inverse of G from B-inverse, IUseBI=4.
 Internal  Forces:  Max     0.080427101 RMS     0.013316331
 Search for a saddle point.
 Step number   2 out of a maximum of   80
 All quantities printed in internal units (Hartrees-Bohrs-Radians)
 Swapping is turned off.
 Update second derivatives using D2CorX and points    1    2
 ITU=  0  0
     Eigenvalues ---   -0.04132  -0.03277  -0.00210   0.00152   0.00274
     Eigenvalues ---    0.00385   0.00554   0.00795   0.01820   0.02452
     Eigenvalues ---    0.03428   0.04455   0.04973   0.05379   0.05633
     Eigenvalues ---    0.06692   0.08218   0.09564   0.10067   0.10998
     Eigenvalues ---    0.13799   0.18367   0.19259   0.22169   0.24052
     Eigenvalues ---    0.27923   0.29822   0.37425   0.38075   0.39507
     Eigenvalues ---    0.41610   0.43768   0.45675   0.51797   0.56086
     Eigenvalues ---    0.79125
 Eigenvectors required to have negative eigenvalues:
                          R10       R11       A15       R3        A3
   1                    0.79913  -0.40692   0.23307  -0.20002  -0.15567
                          A2        A14       A16       A20       A22
   1                    0.14485  -0.12279  -0.11175  -0.07310   0.06944
 RFO step:  Lambda0=5.323595050D-04 Lambda=-7.14338109D-02.
 Linear search not attempted -- option 19 set.
 Maximum step size (   0.300) exceeded in Quadratic search.
    -- Step size scaled by   0.302
 Iteration  1 RMS(Cart)=  0.03873803 RMS(Int)=  0.00160629
 Iteration  2 RMS(Cart)=  0.00200465 RMS(Int)=  0.00030867
 Iteration  3 RMS(Cart)=  0.00000575 RMS(Int)=  0.00030864
 Iteration  4 RMS(Cart)=  0.00000000 RMS(Int)=  0.00030864
 Variable       Old X    -DE/DX   Delta X   Delta X   Delta X     New X
                                 (Linear)    (Quad)   (Total)
    R1        2.65689  -0.00274   0.00000   0.00217   0.00209   2.65898
    R2        2.56209   0.00198   0.00000   0.00200   0.00198   2.56406
    R3        3.72154  -0.00572   0.00000   0.14003   0.13978   3.86132
    R4        2.63374   0.00681   0.00000   0.00389   0.00391   2.63765
    R5        2.61582  -0.00800   0.00000  -0.00656  -0.00639   2.60943
    R6        2.60015  -0.00373   0.00000  -0.00047  -0.00041   2.59974
    R7        2.03286   0.00085   0.00000   0.00034   0.00034   2.03321
    R8        2.54357   0.00598   0.00000   0.00173   0.00175   2.54531
    R9        2.04467   0.00023   0.00000   0.00013   0.00013   2.04479
   R10        3.30058  -0.02308   0.00000  -0.08653  -0.08653   3.21405
   R11        2.27532  -0.05102   0.00000  -0.18880  -0.18880   2.08652
   R12        2.33926   0.03074   0.00000   0.01572   0.01572   2.35498
   R13        2.48250  -0.01065   0.00000  -0.00776  -0.00753   2.47497
   R14        1.82360   0.00964   0.00000   0.00564   0.00564   1.82924
   R15        2.09648  -0.08043   0.00000  -0.10622  -0.10622   1.99027
    A1        1.88041  -0.00838   0.00000  -0.01015  -0.00999   1.87042
    A2        1.63141   0.00687   0.00000  -0.01555  -0.01594   1.61546
    A3        2.74933   0.00170   0.00000   0.01623   0.01568   2.76501
    A4        1.88749   0.00681   0.00000   0.00686   0.00678   1.89428
    A5        2.18262  -0.01041   0.00000  -0.00644  -0.00656   2.17607
    A6        2.20729   0.00374   0.00000   0.00119   0.00126   2.20854
    A7        1.82239  -0.00178   0.00000  -0.00173  -0.00172   1.82067
    A8        2.11441   0.00393   0.00000   0.00513   0.00512   2.11953
    A9        2.34616  -0.00216   0.00000  -0.00342  -0.00342   2.34274
   A10        1.95575  -0.00389   0.00000  -0.00381  -0.00381   1.95194
   A11        2.22605   0.00106   0.00000   0.00028   0.00027   2.22632
   A12        2.10138   0.00284   0.00000   0.00354   0.00353   2.10491
   A13        1.87303   0.00743   0.00000   0.00934   0.00925   1.88229
   A14        1.69510  -0.00707   0.00000  -0.02597  -0.02638   1.66872
   A15        2.18623   0.00527   0.00000  -0.03544  -0.03514   2.15108
   A16        2.39426   0.00185   0.00000   0.06017   0.06031   2.45457
   A17        2.07805  -0.00272   0.00000  -0.00450  -0.00459   2.07345
   A18        2.03755  -0.00000   0.00000   0.00550   0.00569   2.04324
   A19        2.16759   0.00272   0.00000  -0.00100  -0.00110   2.16649
   A20        1.86774   0.01067   0.00000   0.04190   0.04199   1.90974
   A21        1.94086  -0.00782   0.00000  -0.01037  -0.01043   1.93043
   A22        1.59468   0.02590   0.00000   0.08308   0.08298   1.67766
   A23        1.92504  -0.00976   0.00000  -0.01199  -0.01223   1.91281
    D1        0.10326  -0.00173   0.00000  -0.00455  -0.00488   0.09838
    D2        3.13558  -0.00001   0.00000   0.01084   0.01029  -3.13731
    D3        3.11343  -0.00075   0.00000  -0.02912  -0.02807   3.08536
    D4       -0.13744   0.00097   0.00000  -0.01373  -0.01290  -0.15034
    D5       -0.09030   0.00184   0.00000   0.00466   0.00494  -0.08536
    D6       -2.88266   0.00049   0.00000   0.08699   0.08734  -2.79532
    D7        0.07016   0.00003   0.00000   0.02601   0.02542   0.09559
    D8        3.09899   0.00041   0.00000   0.02210   0.02250   3.12149
    D9        2.87915   0.00025   0.00000  -0.05288  -0.05362   2.82553
   D10       -0.37520   0.00062   0.00000  -0.05679  -0.05654  -0.43174
   D11       -0.07314   0.00044   0.00000   0.00203   0.00231  -0.07082
   D12        3.08843   0.00078   0.00000   0.00298   0.00305   3.09149
   D13       -3.10349  -0.00019   0.00000  -0.01304  -0.01261  -3.11609
   D14        0.05809   0.00015   0.00000  -0.01209  -0.01187   0.04622
   D15       -2.97688  -0.00250   0.00000  -0.00840  -0.00797  -2.98485
   D16        0.16520  -0.00137   0.00000  -0.00853  -0.00838   0.15683
   D17        0.03549  -0.00053   0.00000   0.01000   0.01015   0.04563
   D18       -3.10562   0.00060   0.00000   0.00988   0.00974  -3.09588
   D19        0.01827   0.00027   0.00000   0.00045   0.00035   0.01862
   D20       -3.11869   0.00009   0.00000   0.00003  -0.00014  -3.11883
   D21        3.13592  -0.00003   0.00000  -0.00053  -0.00037   3.13555
   D22       -0.00104  -0.00020   0.00000  -0.00096  -0.00086  -0.00191
   D23        0.04571  -0.00120   0.00000  -0.00297  -0.00311   0.04260
   D24       -3.10014  -0.00104   0.00000  -0.00258  -0.00266  -3.10280
   D25       -0.00312   0.00006   0.00000  -0.03327  -0.03296  -0.03608
   D26       -3.00912  -0.00063   0.00000  -0.01628  -0.01576  -3.02488
   D27        0.61526   0.00039   0.00000   0.00030   0.00019   0.61545
   D28        2.57742  -0.00056   0.00000   0.02100   0.02111   2.59853
   D29       -2.69135   0.00046   0.00000  -0.01681  -0.01692  -2.70827
   D30       -0.72920  -0.00049   0.00000   0.00389   0.00400  -0.72519
   D31       -0.07407  -0.00026   0.00000   0.02969   0.03053  -0.04354
   D32        3.06803   0.00094   0.00000   0.02956   0.03010   3.09814
         Item               Value     Threshold  Converged?
 Maximum Force            0.080427     0.000450     NO 
 RMS     Force            0.013316     0.000300     NO 
 Maximum Displacement     0.167534     0.001800     NO 
 RMS     Displacement     0.038957     0.001200     NO 
 Predicted change in Energy=-2.251305D-02
 GradGradGradGradGradGradGradGradGradGradGradGradGradGradGradGradGradGrad

                          Input orientation:                          
 ---------------------------------------------------------------------
 Center     Atomic      Atomic             Coordinates (Angstroms)
 Number     Number       Type             X           Y           Z
 ---------------------------------------------------------------------
      1          7           0        0.580882   -0.957817   -0.354059
      2          7           0        0.256276    0.371790   -0.027524
      3          6           0        1.440172    1.072266    0.208972
      4          6           0        2.426009    0.118049    0.107953
      5          7           0        1.921330   -1.093785   -0.193634
      6          1           0        1.434520    2.124828    0.431904
      7          1           0        3.490906    0.252803    0.244646
      8          1           0       -1.384213   -1.505680   -0.469879
      9          6           0       -1.018856    0.900526   -0.062491
     10          8           0       -1.163288    2.129748    0.083024
     11          8           0       -2.007045    0.061505   -0.249125
     12          1           0       -1.101878   -3.184944   -0.376246
     13          8           0       -1.713676   -2.525794   -0.734345
     14          1           0       -2.595124   -2.512109   -0.158063
 ---------------------------------------------------------------------
                    Distance matrix (angstroms):
                    1          2          3          4          5
     1  N    0.000000
     2  N    1.407071   0.000000
     3  C    2.275219   1.395782   0.000000
     4  C    2.185277   2.188717   1.375721   0.000000
     5  N    1.356843   2.224390   2.255079   1.346922   0.000000
[...]
 ! D5    D(2,1,5,4)             -0.0929         -DE/DX =    0.0                 !
 ! D6    D(8,1,5,4)           -176.2038         -DE/DX =    0.0                 !
 ! D7    D(2,1,8,11)             1.6077         -DE/DX =    0.0                 !
 ! D8    D(2,1,8,13)          -179.3828         -DE/DX =    0.0                 !
 ! D9    D(5,1,8,11)           177.7879         -DE/DX =    0.0                 !
 ! D10   D(5,1,8,13)            -3.2027         -DE/DX =    0.0                 !
 ! D11   D(1,2,3,4)             -0.0639         -DE/DX =    0.0                 !
 ! D12   D(1,2,3,6)            179.9939         -DE/DX =    0.0                 !
 ! D13   D(9,2,3,4)            179.3456         -DE/DX =    0.0                 !
 ! D14   D(9,2,3,6)             -0.5966         -DE/DX =    0.0                 !
 ! D15   D(1,2,9,10)          -179.862          -DE/DX =    0.0                 !
 ! D16   D(1,2,9,11)             0.093          -DE/DX =    0.0                 !
 ! D17   D(3,2,9,10)             0.7799         -DE/DX =    0.0                 !
 ! D18   D(3,2,9,11)          -179.2651         -DE/DX =    0.0                 !
 ! D19   D(2,3,4,5)              0.0056         -DE/DX =    0.0                 !
 ! D20   D(2,3,4,7)           -179.9584         -DE/DX =    0.0                 !
 ! D21   D(6,3,4,5)            179.9388         -DE/DX =    0.0                 !
 ! D22   D(6,3,4,7)             -0.0252         -DE/DX =    0.0                 !
 ! D23   D(3,4,5,1)              0.0558         -DE/DX =    0.0                 !
 ! D24   D(7,4,5,1)           -179.9774         -DE/DX =    0.0                 !
 ! D25   D(1,8,11,9)            -1.7408         -DE/DX =    0.0                 !
 ! D26   D(13,8,11,9)          179.1804         -DE/DX =    0.0                 !
 ! D27   D(1,8,13,12)           28.0309         -DE/DX =    0.0                 !
 ! D28   D(1,8,13,14)          146.918          -DE/DX =    0.0                 !
 ! D29   D(11,8,13,12)        -153.3157         -DE/DX =    0.0                 !
 ! D30   D(11,8,13,14)         -34.4287         -DE/DX =    0.0                 !
 ! D31   D(2,9,11,8)             1.3189         -DE/DX =    0.0                 !
 ! D32   D(10,9,11,8)         -178.7302         -DE/DX =    0.0                 !
 --------------------------------------------------------------------------------
 GradGradGradGradGradGradGradGradGradGradGradGradGradGradGradGradGradGrad


 ----------------------------------------------------------------------

 Electric dipole moment (input orientation):
 (Debye = 10**-18 statcoulomb cm , SI units = C m)
                  (au)            (Debye)         (10**-30 SI)
   Tot        0.457879D+01      0.116381D+02      0.388206D+02
   x         -0.412990D+00     -0.104972D+01     -0.350148D+01
   y         -0.455711D+01     -0.115830D+02     -0.386368D+02
   z          0.165998D+00      0.421924D+00      0.140739D+01

 Dipole polarizability, Alpha (input orientation).
 (esu units = cm**3 , SI units = C**2 m**2 J**-1)
 Alpha(0;0):
               (au)            (10**-24 esu)      (10**-40 SI)
   iso        0.125612D+03      0.186139D+02      0.207107D+02
   aniso      0.784928D+02      0.116314D+02      0.129417D+02
   xx         0.155056D+03      0.229770D+02      0.255654D+02
   yx        -0.145295D+02     -0.215304D+01     -0.239558D+01
   yy         0.143514D+03      0.212666D+02      0.236623D+02
   zx         0.341244D+01      0.505671D+00      0.562635D+00
   zy         0.107904D+02      0.159897D+01      0.177910D+01
   zz         0.782667D+02      0.115979D+02      0.129044D+02

 ----------------------------------------------------------------------

 Dipole orientation:
     7          0.99099206         -0.67468393          1.61150232
     7          0.37723777         -0.07196539         -0.88358235
     6          2.58910701          0.22505312         -2.29175015
     6          4.48858866         -0.21223012         -0.57262787
     7          3.55767325         -0.74515806          1.74438426
     1          2.57927679          0.69513786         -4.27186699
     1          6.50515247         -0.16458021         -0.90752682
     1         -2.18527391         -0.87635076          3.17426424
     6         -2.11280552          0.15785552         -1.58656326
     8         -2.60200746          0.70374364         -3.87601338
     8         -3.73516215         -0.21159838          0.17845666
     1         -1.60497700         -0.72680276          6.20140244
     8         -2.86791457         -1.23753369          4.95975184
     1         -4.40530207         -0.26239136          5.24866241

 Electric dipole moment (dipole orientation):
 (Debye = 10**-18 statcoulomb cm , SI units = C m)
                  (au)            (Debye)         (10**-30 SI)
   Tot        0.457879D+01      0.116381D+02      0.388206D+02
   x          0.000000D+00      0.000000D+00      0.000000D+00
   y          0.000000D+00      0.000000D+00      0.000000D+00
   z          0.457879D+01      0.116381D+02      0.388206D+02

 Dipole polarizability, Alpha (dipole orientation).
 (esu units = cm**3 , SI units = C**2 m**2 J**-1)
 Alpha(0;0):
               (au)            (10**-24 esu)      (10**-40 SI)
   iso        0.125612D+03      0.186139D+02      0.207107D+02
   aniso      0.784928D+02      0.116314D+02      0.129417D+02
   xx         0.157285D+03      0.233072D+02      0.259328D+02
   yx        -0.513853D+01     -0.761452D+00     -0.847229D+00
   yy         0.794397D+02      0.117718D+02      0.130978D+02
   zx         0.120798D+02      0.179004D+01      0.199169D+01
   zy        -0.144472D+02     -0.214086D+01     -0.238202D+01
   zz         0.140113D+03      0.207626D+02      0.231015D+02

 ----------------------------------------------------------------------
 1\1\GINC-NODE4\Freq\UM062X\6-31+G(d,p)\C3H5N3O3(1-,2)\GONGKE2021\11-Ju
 l-2023\0\\#N Geom=AllCheck Guess=TCheck SCRF=Check GenChk UM062X/6-31+
 G(d,p) Freq\\test\\-1,2\N,0.474305391,-0.9099069148,-0.2771205675\N,0.
 2435307073,0.4463843058,-0.0368477227\C,1.4584081764,1.0935613269,0.19
 81404191\C,2.3936717005,0.0908679292,0.0914786315\N,1.8187596762,-1.09
 91982503,-0.1891806373\H,1.5262082131,2.1478533764,0.4072635341\H,3.46
 62139269,0.1759185284,0.2063998691\H,-1.2586521723,-1.5920690052,-0.50
 49544466\C,-1.0407809483,0.9361360021,-0.048143515\O,-1.2133725114,2.1
 770893908,0.1720882672\O,-1.959862802,0.0723003889,-0.2862978725\H,-1.
 1053235199,-3.2094864811,-0.3404200247\O,-1.6857178264,-2.5095696577,-
 0.6935075509\H,-2.551373271,-2.5684948894,-0.2477650339\\Version=ES64L
 -G16RevA.03\State=2-A\HF=-507.1404501\S2=0.763463\S2-1=0.\S2A=0.750072
 \RMSD=1.450e-09\RMSF=8.293e-06\ZeroPoint=0.0946448\Thermal=0.1034679\D
 ipole=-0.4129904,-4.5571073,0.1659976\DipoleDeriv=-0.0607369,-1.218969
 1,-0.1823012,0.2066686,-0.4207588,0.0374415,0.0871221,-0.0813354,-0.52
 48751,-1.510917,0.6771444,-0.0083937,0.3336026,-0.3277815,-0.0447148,-
 0.061843,-0.0250455,0.0758543,-0.2259733,0.3455379,0.1008003,-0.117223
 5,-0.7903927,-0.0559496,0.0049926,-0.0126666,-0.5508858,0.2204296,-0.1
 809942,-0.0020754,-0.3745687,1.3089163,0.2418113,-0.0392967,0.2567722,
 -0.0824247,-0.8575095,0.694136,0.0946451,0.3412616,-1.3702504,-0.16330
 42,0.0188387,-0.1300759,-0.3657541,0.0975249,0.0089785,-0.0229735,-0.0
 23441,0.0696727,-0.0593194,-0.0288548,-0.0569338,0.3535673,-0.0934055,
 -0.022647,-0.0324058,-0.0217858,0.1566399,-0.0132987,-0.0330118,-0.013
 2675,0.212147,0.9150686,0.4866049,0.1004244,0.4741313,1.4868849,0.1641
 721,0.0949042,0.1646659,0.4587673,3.960898,-0.5333498,0.177428,-0.4637
 818,3.401267,0.4816912,0.1835041,0.4872989,0.6901205,-1.2772049,0.2725
 257,0.0114169,1.1960717,-2.7451294,-0.2567414,0.1885769,-0.3425726,-0.
 8507137,-2.4018072,-0.1570806,-0.1658702,-1.1803079,-1.5190518,-0.2128
 83,-0.3515256,-0.1364191,-0.8488999,0.4682951,-0.0789547,0.0145508,-0.
 0625983,0.5761182,-0.0015386,0.0123127,0.004415,0.4617718,-0.8379476,-
 0.3323957,-0.062034,-0.3238457,-1.2395987,-0.1134239,-0.0520176,-0.110
 559,-0.4973243,0.6032859,0.0394638,-0.0232116,0.0158169,0.4134643,-0.0
 039426,-0.0237017,-0.0042766,0.4686493\Polar=155.0564523,-14.5294531,1
 43.5143881,3.4124391,10.7903986,78.2666527\Quadrupole=-4.2533118,4.672
 3416,-0.4190298,23.3480249,0.5087628,-2.434288\PG=C01 [X(C3H5N3O3)]\NI
 mag=1\\0.48504756,0.04101513,0.37890174,0.04755177,0.06613821,0.068049
 86,-0.09090254,-0.03831865,-0.01274478,0.85672845,0.00841725,-0.199393
 84,-0.03201179,-0.04877700,0.56338376,-0.00398010,-0.03673008,-0.03460
 495,0.05957284,0.09206404,0.08589330,0.00303806,-0.03159815,-0.0053028
 2,-0.23731533,-0.06945210,-0.03202894,0.55327917,-0.02669002,-0.049093
 15,-0.01064862,-0.06022062,-0.14207284,-0.02759477,-0.05889294,0.85126
 307,-0.00427357,-0.01096299,-0.00882144,-0.03086380,-0.02867797,-0.034
 84301,0.03317036,0.14550563,0.09614611,-0.09380850,-0.02503193,-0.0146
 3888,-0.07732550,-0.00578870,-0.00905461,-0.24542102,0.15052074,0.0112
 9074,0.89352585,-0.01247982,-0.00694464,-0.00524107,0.03057561,0.00526
 136,0.00200940,0.12569673,-0.21621715,-0.01976993,-0.01547307,0.548708
 50,-0.01240317,-0.00649583,0.01225617,-0.00208065,-0.00137434,0.009346
 02,0.00648420,-0.01742253,-0.05617776,0.06786167,0.07952172,0.14721516
 ,-0.26773386,0.05668774,-0.01026971,-0.07573338,0.06064260,0.00484238,
 0.01352251,-0.00101613,-0.00173329,-0.13333090,-0.12129227,-0.03000734
 ,0.46076535,-0.05551614,-0.09486747,-0.01481537,0.04541330,-0.03264570
 ,-0.00213786,0.04920879,-0.11278407,-0.02283047,-0.08207444,-0.2524381
 7,-0.04386521,0.03723050,0.48750804,-0.03167360,-0.00456653,-0.0470857
 4,0.00173463,-0.00064293,-0.00018397,0.00793619,-0.02742420,0.02560105
 ,-0.02256127,-0.04750189,-0.07339410,0.04322998,0.08217339,0.09585756,
 -0.00536935,-0.00150680,-0.00105500,0.00258648,-0.02911799,-0.00481818
 ,-0.05520828,-0.01082079,-0.00650464,0.01187671,0.01536900,0.00427573,
 -0.00279544,0.00578280,0.00030865,0.04826116,0.00094114,0.00027827,-0.
 00048450,0.00139087,-0.00551786,0.00021261,-0.01987242,-0.36361999,-0.
 07013071,-0.00583009,-0.00586011,-0.00119496,-0.00028789,0.00032165,-0
 .00109826,0.02112738,0.37559698,-0.00064060,-0.00072760,0.00314355,0.0
 0100164,-0.00263535,-0.00632880,-0.00817474,-0.06927246,-0.02303120,0.
 00018707,0.00079873,-0.00228529,-0.00084962,-0.00056130,0.00570498,0.0
 0771547,0.07226299,0.02500962,0.00085966,-0.00099271,-0.00082665,-0.00
 174644,0.00113748,-0.00049900,-0.00712822,-0.00633818,-0.00196969,-0.3
 5537681,-0.01735065,-0.03308423,-0.00812408,-0.00028775,-0.00030160,-0
 .00017331,0.00024959,0.00024335,0.37145352,-0.00308948,-0.00479295,-0.
 00268909,0.00427528,-0.00526320,-0.00181449,0.01798734,0.01098137,0.00
 354694,-0.01199874,-0.06126629,-0.00646951,-0.03105202,0.00497303,-0.0
 0086343,-0.00087152,-0.00024971,0.00030930,0.02397830,0.05392357,-0.00
 123061,-0.00254485,0.00735084,0.00010447,-0.00208034,0.00583270,0.0026
 9212,0.00132718,0.00158601,-0.03206065,-0.00697012,-0.03722707,-0.0062
 0208,0.00196563,-0.00571149,0.00002460,0.00041553,-0.00220443,0.036582
 55,0.00775216,0.02958443,0.01628562,-0.00895553,-0.00010779,-0.0018626
 9,-0.00246846,-0.00058730,0.00018512,0.00441937,0.00089521,0.00487025,
 -0.00164951,0.00013749,-0.00072690,0.01169847,0.00195912,0.00039134,0.
 00022975,0.00008587,0.00053009,0.00090309,0.00023668,0.06744834,0.0067
 4416,-0.01182981,-0.00069086,0.00115441,-0.00208042,-0.00031052,0.0008
 8041,0.00050311,0.00018725,0.00263268,-0.00050796,0.00007864,0.0023306
 7,0.00495454,0.00140719,0.00011714,0.00009046,0.00002107,0.00035021,0.
 00041252,0.00007550,0.09040732,0.22307301,0.00222313,-0.00162580,-0.00
 370335,-0.00024203,-0.00066636,0.00043468,0.00018803,0.00038591,0.0001
 5665,0.00068111,-0.00025553,0.00016255,0.00049320,0.00194488,-0.002559
 60,0.00003223,0.00000943,0.00008322,0.00006178,0.00005624,0.00029618,0
 .01434907,0.03350424,0.04797329,-0.03516926,0.01638649,-0.00013672,-0.
 26500378,0.06216750,-0.00656810,-0.02337608,0.00313269,-0.00073951,0.0
 0100840,0.00050291,0.00015497,0.03298421,-0.01469275,0.00054944,0.0021
 5886,0.00113679,0.00041462,0.00157160,-0.00031303,-0.00004197,0.016397
 28,-0.01894179,-0.00161072,0.62212074,0.04102109,-0.00533244,0.0018498
 9,0.04906107,-0.13270709,-0.01106352,-0.00900363,0.01717809,0.00307965
 ,-0.00763527,-0.00772772,-0.00220573,-0.00969948,-0.00293403,-0.000954
 70,-0.00076650,-0.00207521,-0.00044744,-0.00118741,0.00119871,-0.00016
 546,-0.00157426,-0.02057904,-0.00336975,0.03203206,0.77148542,0.004638
 79,-0.00025714,0.00299786,-0.00806863,-0.01020846,-0.05634953,-0.00378
 255,0.00430593,-0.00206070,-0.00143386,-0.00164118,-0.00021562,0.00102
 926,-0.00112694,-0.00265553,0.00005183,-0.00027767,-0.00021963,-0.0002
 3567,-0.00004777,0.00134354,0.00113378,-0.00536544,-0.00101133,0.04192
 837,0.11379180,0.21217476,-0.00192869,-0.00518107,-0.00139574,-0.01922
 277,0.06269257,0.00901934,0.00359265,-0.00092832,0.00034920,0.00047277
 ,0.00289256,0.00062888,-0.00597080,0.00409888,0.00006359,-0.00066451,0
 .00160653,0.00022987,-0.00039314,0.00019289,0.00000898,-0.00333323,0.0
 0331470,0.00021363,-0.09970513,0.04525605,0.00585663,0.11029965,-0.010
 41784,-0.01290262,-0.00381160,0.03503871,-0.04632341,-0.00957015,0.003
 95108,0.00512084,0.00213987,-0.00076172,0.00269626,0.00049746,0.019684
 41,-0.00713565,0.00007329,0.00123488,0.00101378,0.00024945,0.00089167,
 0.00019717,0.00013764,0.00164240,0.01052086,0.00169164,0.04322603,-0.4
 0531349,-0.06035352,-0.06446114,0.53776977,-0.00230834,-0.00320269,0.0
 0133869,0.00373921,-0.00687357,0.01584426,0.00133566,0.00147505,-0.002
 76391,-0.00007878,0.00081336,-0.00010498,0.00308180,-0.00147358,0.0021
 5036,0.00013335,0.00029088,0.00036362,0.00014477,0.00006933,-0.0000537
 2,-0.00004304,0.00218754,0.00072574,0.00529181,-0.06038433,-0.07763279
 ,-0.00547787,0.09088770,0.04559627,0.01000184,0.00472817,0.00186639,-0
 .08843469,-0.03843720,-0.01552134,-0.00508731,0.00883736,0.00078640,-0
 .00420161,-0.00741114,-0.00186192,-0.01254679,0.00443669,-0.00035625,-
 0.00081603,-0.00056059,-0.00016325,-0.00122493,0.00040277,0.00000485,-
 0.01260358,-0.00475200,-0.00109761,-0.24880176,-0.13940618,-0.04104891
 ,0.01591438,-0.02833335,-0.00561612,0.34315701,0.02581486,0.00549268,0
 .00389357,-0.01699347,-0.00121926,-0.00446008,-0.00833987,-0.00016706,
 -0.00180385,0.00326765,-0.00616329,-0.00103329,-0.01181634,0.00949484,
 0.00032629,-0.00041283,0.00011488,0.00003654,-0.00024930,0.00021231,0.
 00016719,-0.01086093,0.03084998,0.00524661,-0.13529743,-0.21922845,-0.
 04078447,-0.04737376,-0.07969042,-0.02250118,0.19878397,0.29686478,0.0
 0604609,0.00195068,-0.00209080,-0.01164639,-0.00654828,0.01498490,-0.0
 0238931,-0.00028480,0.00429262,0.00023297,-0.00188435,0.00044774,-0.00
 337661,0.00187198,0.00152788,-0.00012448,0.00001789,-0.00021960,-0.000
 07234,0.00020952,-0.00070884,-0.00235542,0.00669631,-0.00699375,-0.040
 51267,-0.04122732,-0.07706514,-0.00926105,-0.02080384,0.01480951,0.062
 83202,0.06644804,0.04923094,-0.00159480,0.00076592,-0.00027820,0.00015
 255,0.00017253,-0.00003150,-0.00011526,0.00020826,0.00002747,-0.000035
 03,-0.00003474,-0.00000168,-0.00044517,-0.00004320,-0.00009070,0.00002
 334,0.00001373,0.00000858,0.00000055,-0.00000631,0.00000580,0.01519332
 ,-0.00408810,0.00728512,0.00180409,0.00069321,0.00026611,-0.00036971,-
 0.00037647,-0.00010165,0.00004277,-0.00373439,-0.00088188,0.21929051,0
 .00143407,0.00111704,-0.00065557,0.00038485,0.00020388,-0.00006874,0.0
 0001611,0.00060212,0.00011431,0.00042682,-0.00008714,0.00006246,-0.000
 31886,0.00079779,-0.00000693,0.00008442,0.00003178,0.00001593,0.000063
 15,0.00006849,0.00003841,0.01842778,-0.01913730,0.01319485,0.00172574,
 -0.00053493,0.00002930,-0.00037458,0.00038618,0.00006010,-0.00114291,-
 0.00172306,-0.00064014,-0.19816905,0.28287414,-0.00020812,-0.00015968,
 -0.00005449,-0.00012516,0.00002364,-0.00008062,0.00000263,0.00001699,-
 0.00001527,-0.00002081,-0.00001122,0.00001509,-0.00005050,-0.00000732,
 -0.00004479,-0.00000531,-0.00000035,0.00000078,-0.00000455,-0.00000365
 ,0.00000820,0.00535146,-0.00480949,0.00094272,0.00061398,0.00020083,0.
 00022122,-0.00013442,-0.00022833,-0.00010344,-0.00012854,-0.00178679,-
 0.00011372,0.09261855,-0.12547162,0.07653448,-0.01936531,-0.00733760,-
 0.00260938,-0.00185810,-0.00121273,-0.00033497,-0.00009817,-0.00228868
 ,-0.00045726,-0.00233583,0.00065734,-0.00011039,-0.00003900,-0.0053911
 5,-0.00079915,-0.00027939,-0.00014834,-0.00006259,-0.00027038,-0.00041
 959,-0.00013482,-0.09225291,-0.07513243,-0.02827063,-0.00468813,0.0021
 7290,0.00006532,0.00105855,-0.00202787,-0.00026766,0.00434336,0.004319
 47,0.00127870,-0.21666279,0.17980504,-0.10967426,0.71810734,-0.0147401
 1,0.00005698,-0.00035214,-0.00304502,-0.00160977,-0.00051060,-0.000616
 94,-0.00137998,-0.00033286,-0.00196978,0.00042509,-0.00011065,-0.00115
 805,-0.00452359,-0.00064572,-0.00018844,-0.00011020,-0.00004267,-0.000
 23681,-0.00033593,-0.00011301,-0.07747822,-0.22236127,-0.06763488,0.01
 057777,0.00673994,0.00220842,-0.00207290,-0.00660037,-0.00144605,0.001
 01949,-0.03567189,-0.00570153,0.17785829,-0.26975673,0.14895700,-0.074
 97959,0.59930027,-0.00249375,-0.00024864,0.00124973,-0.00020105,-0.000
 26940,0.00000635,-0.00011340,-0.00020334,-0.00001585,-0.00024513,0.000
 10909,-0.00001868,-0.00014865,-0.00080959,0.00084452,-0.00000690,-0.00
 001129,-0.00000915,-0.00001303,-0.00002541,-0.00008112,-0.01373180,-0.
 03481105,-0.03856012,0.00061196,0.00054946,0.00041055,-0.00010502,-0.0
 0065149,-0.00011356,0.00027797,-0.00337528,0.00208997,-0.08181513,0.11
 524114,-0.08311118,-0.07448293,-0.09463899,0.23740332,0.00063958,-0.00
 066102,-0.00005250,-0.00006228,0.00002424,-0.00001054,0.00013216,0.000
 07726,0.00002239,0.00008120,-0.00000296,0.00000646,0.00017423,0.000136
 00,0.00000096,0.00000842,0.00000354,0.00000433,0.00002189,0.00001101,0
 .00001008,-0.01052205,-0.00501738,0.00569370,-0.00130105,-0.00096365,-
 0.00040049,0.00024997,0.00070922,0.00016686,0.00025734,0.00289236,0.00
 023036,-0.01728438,-0.00236257,0.01176505,-0.38565923,-0.01296969,0.17
 246688,0.41326421,-0.00245430,-0.00068978,-0.00048104,0.00006066,-0.00
 001561,-0.00002525,0.00003558,-0.00031435,-0.00006488,-0.00028415,0.00
 012125,0.00001177,0.00006512,-0.00072122,-0.00027557,-0.00003077,-0.00
 001471,-0.00000719,-0.00002759,-0.00005910,-0.00000546,-0.02474129,0.0
 0609133,0.01751851,-0.00164297,-0.00016976,-0.00027285,0.00033759,0.00
 026108,0.00009744,0.00183492,0.00083395,-0.00010416,0.02674033,0.00515
 775,-0.01672000,-0.01801677,-0.06417254,0.01914479,0.01812363,0.053691
 70,-0.00124793,-0.00056705,-0.00002591,-0.00018030,-0.00009889,0.00004
 867,-0.00001741,-0.00016597,-0.00005329,-0.00015956,0.00002299,-0.0000
 1923,-0.00003882,-0.00032823,-0.00005113,-0.00002735,-0.00001160,-0.00
 000766,-0.00002570,-0.00003014,-0.00001525,-0.00732333,0.00182961,0.00
 205312,0.00004453,0.00034661,0.00006234,0.00000398,-0.00025812,-0.0000
 5604,0.00002629,-0.00037331,-0.00019171,-0.01701090,-0.00191349,0.0058
 0102,0.21586003,0.02036368,-0.12009477,-0.18990354,-0.01881610,0.11254
 985\\0.00000086,0.00000403,0.00000557,0.00000045,-0.00000037,0.0000020
 4,-0.00000149,-0.00000182,0.00001234,0.00000044,-0.00000413,0.00001651
 ,0.00000030,-0.00000308,0.00001119,-0.00000042,-0.00000219,0.00001216,
 -0.00000156,-0.00000487,0.00002523,0.00000549,-0.00000780,-0.00000856,
 0.00000144,0.00000012,-0.00000750,0.00000149,0.00000270,-0.00000742,0.
 00000073,0.00000259,-0.00001412,-0.00000006,0.00000294,-0.00000915,-0.
 00000668,0.00000648,-0.00001810,-0.00000097,0.00000539,-0.00002017\\\@


 AN AIRPLANE IS A COLLECTION OF SPARE PARTS
 FLYING IN CLOSE FORMATION.
 Job cpu time:       0 days  0 hours 34 minutes 29.6 seconds.
 Elapsed time:       0 days  0 hours  1 minutes 26.9 seconds.
 File lengths (MBytes):  RWF=    151 Int=      0 D2E=      0 Chk=     11 Scr=      1
 Normal termination of Gaussian 16 at Tue Jul 11 13:04:18 2023.
