 Entering Gaussian System, Link 0=/opt/soft/g16/g16
 Initial command:
 /opt/soft/g16/l1.exe "/scratch/gongke2021/TS/Gau-32245.inp" -scrdir="/scratch/gongke2021/TS/"
 Entering Link 1 = /opt/soft/g16/l1.exe PID=     32246.
  
 Copyright (c) 1988,1990,1992,1993,1995,1998,2003,2009,2016,
            Gaussian, Inc.  All Rights Reserved.
  
 This is part of the Gaussian(R) 16 program.  It is based on
 the Gaussian(R) 09 system (copyright 2009, Gaussian, Inc.),
 the Gaussian(R) 03 system (copyright 2003, Gaussian, Inc.),
 the Gaussian(R) 98 system (copyright 1998, Gaussian, Inc.),
 the Gaussian(R) 94 system (copyright 1995, Gaussian, Inc.),
 the Gaussian 92(TM) system (copyright 1992, Gaussian, Inc.),
 the Gaussian 90(TM) system (copyright 1990, Gaussian, Inc.),
 the Gaussian 88(TM) system (copyright 1988, Gaussian, Inc.),
 the Gaussian 86(TM) system (copyright 1986, Carnegie Mellon
 University), and the Gaussian 82(TM) system (copyright 1983,
 Carnegie Mellon University). Gaussian is a federally registered
 trademark of Gaussian, Inc.
  
 This software contains proprietary and confidential information,
 including trade secrets, belonging to Gaussian, Inc.
  
 This software is provided under written license and may be
 used, copied, transmitted, or stored only in accord with that
 written license.
  
 The following legend is applicable only to US Government
 contracts under FAR:
  
                    RESTRICTED RIGHTS LEGEND
  
 Use, reproduction and disclosure by the US Government is
 subject to restrictions as set forth in subparagraphs (a)
 and (c) of the Commercial Computer Software - Restricted
 Rights clause in FAR 52.227-19.
  
 Gaussian, Inc.
 340 Quinnipiac St., Bldg. 40, Wallingford CT 06492
  
  
 ---------------------------------------------------------------
 Warning -- This program may not be used in any manner that
 competes with the business of Gaussian, Inc. or will provide
 assistance to any competitor of Gaussian, Inc.  The licensee
 of this program is prohibited from giving any competitor of
 Gaussian, Inc. access to this program.  By using this program,
 the user acknowledges that Gaussian, Inc. is engaged in the
 business of creating and licensing software in the field of
 computational chemistry and represents and warrants to the
 licensee that it is not a competitor of Gaussian, Inc. and that
 it will not use this program in any manner prohibited above.
 ---------------------------------------------------------------
  

 Cite this work as:
 Gaussian 16, Revision A.03,
 M. J. Frisch, G. W. Trucks, H. B. Schlegel, G. E. Scuseria, 
 M. A. Robb, J. R. Cheeseman, G. Scalmani, V. Barone, 
 G. A. Petersson, H. Nakatsuji, X. Li, M. Caricato, A. V. Marenich, 
 J. Bloino, B. G. Janesko, R. Gomperts, B. Mennucci, H. P. Hratchian, 
 J. V. Ortiz, A. F. Izmaylov, J. L. Sonnenberg, D. Williams-Young, 
 F. Ding, F. Lipparini, F. Egidi, J. Goings, B. Peng, A. Petrone, 
 T. Henderson, D. Ranasinghe, V. G. Zakrzewski, J. Gao, N. Rega, 
 G. Zheng, W. Liang, M. Hada, M. Ehara, K. Toyota, R. Fukuda, 
 J. Hasegawa, M. Ishida, T. Nakajima, Y. Honda, O. Kitao, H. Nakai, 
 T. Vreven, K. Throssell, J. A. Montgomery, Jr., J. E. Peralta, 
 F. Ogliaro, M. J. Bearpark, J. J. Heyd, E. N. Brothers, K. N. Kudin, 
 V. N. Staroverov, T. A. Keith, R. Kobayashi, J. Normand, 
 K. Raghavachari, A. P. Rendell, J. C. Burant, S. S. Iyengar, 
 J. Tomasi, M. Cossi, J. M. Millam, M. Klene, C. Adamo, R. Cammi, 
 J. W. Ochterski, R. L. Martin, K. Morokuma, O. Farkas, 
 J. B. Foresman, and D. J. Fox, Gaussian, Inc., Wallingford CT, 2016.
 
 ******************************************
 Gaussian 16:  ES64L-G16RevA.03 25-Dec-2016
                11-Jul-2023 
 ******************************************
 %mem=10GB
 %nprocshared=24
 Will use up to   24 processors via shared memory.
 ----------------------------------------------------------------------
 # opt=(calcfc,ts,noeigentest) freq 6-31+g(d,p) integral=grid=ultrafine
  m062x scrf=(SMD,solvent=water)
 ----------------------------------------------------------------------
 1/5=1,10=4,11=1,18=20,26=6,38=1/1,3;
 2/9=110,12=2,17=6,18=5,40=1/2;
 3/5=1,6=6,7=111,11=2,25=1,30=1,70=32201,71=2,72=1,74=-55,75=-5,140=1/1,2,3;
 4//1;
 5/5=2,38=5,53=1/2;
 8/6=4,10=90,11=11/1;
 11/6=1,8=1,9=11,15=111,16=1/1,2,10;
 10/6=1,13=1/2;
 6/7=2,8=2,9=2,10=2,28=1/1;
 7/10=1,18=20,25=1/1,2,3,16;
 1/5=1,10=4,11=1,18=20,26=6/3(2);
 2/9=110/2;
 99//99;
 2/9=110/2;
 3/5=1,6=6,7=111,11=2,25=1,30=1,70=32205,71=1,72=1,74=-55,75=-5/1,2,3;
 4/5=5,16=3,69=1/1;
 5/5=2,38=5,53=1/2;
 7//1,2,3,16;
 1/5=1,11=1,18=20,26=6/3(-5);
 2/9=110/2;
 6/7=2,8=2,9=2,10=2,19=2,28=1/1;
 99/9=1/99;
 ----
 test
 ----
 Symbolic Z-matrix:
 Charge = -1 Multiplicity = 2
 N                    -0.47029  -0.96876   0.43603 
 N                    -0.34354   0.32851  -0.08951 
 C                    -1.62672   0.77241  -0.32646 
 C                    -2.44902  -0.31142  -0.12504 
 N                    -1.76541  -1.40858   0.2589 
 H                    -1.79941   1.79514  -0.61406 
 H                    -3.52187  -0.36009  -0.2538 
 H                     0.88592  -1.65637   0.11594 
 C                     0.83902   1.15747   0.11349 
 O                     0.66633   2.35589  -0.12987 
 O                     1.86447   0.5222    0.46917 
 H                     2.44924  -1.79931  -1.28422 
 O                     2.20955  -1.9272   -0.3623 
 H                     2.1792   -0.70234   0.02551 
 
 Add virtual bond connecting atoms H14        and O13        Dist= 2.43D+00.
 Add virtual bond connecting atoms H14        and O11        Dist= 2.53D+00.
 Add virtual bond connecting atoms N1         and H8         Dist= 2.94D+00.
 Add virtual bond connecting atoms O13        and H8         Dist= 2.71D+00.

 GradGradGradGradGradGradGradGradGradGradGradGradGradGradGradGradGradGrad
 Berny optimization.
 Initialization pass.
                           ----------------------------
                           !    Initial Parameters    !
                           ! (Angstroms and Degrees)  !
 --------------------------                            --------------------------
 ! Name  Definition              Value          Derivative Info.                !
 --------------------------------------------------------------------------------
 ! R1    R(1,2)                  1.4054         calculate D2E/DX2 analytically  !
 ! R2    R(1,5)                  1.3792         calculate D2E/DX2 analytically  !
 ! R3    R(1,8)                  1.5539         calculate D2E/DX2 analytically  !
 ! R4    R(2,3)                  1.3783         calculate D2E/DX2 analytically  !
 ! R5    R(2,9)                  1.4584         calculate D2E/DX2 analytically  !
 ! R6    R(3,4)                  1.3753         calculate D2E/DX2 analytically  !
 ! R7    R(3,6)                  1.0763         calculate D2E/DX2 analytically  !
 ! R8    R(4,5)                  1.3485         calculate D2E/DX2 analytically  !
 ! R9    R(4,7)                  1.0816         calculate D2E/DX2 analytically  !
 ! R10   R(8,13)                 1.4332         calculate D2E/DX2 analytically  !
 ! R11   R(9,10)                 1.235          calculate D2E/DX2 analytically  !
 ! R12   R(9,11)                 1.2576         calculate D2E/DX2 analytically  !
 ! R13   R(11,14)                1.3399         calculate D2E/DX2 analytically  !
 ! R14   R(12,13)                0.9611         calculate D2E/DX2 analytically  !
 ! R15   R(13,14)                1.2851         calculate D2E/DX2 analytically  !
 ! A1    A(2,1,5)              109.3308         calculate D2E/DX2 analytically  !
 ! A2    A(2,1,8)              104.6385         calculate D2E/DX2 analytically  !
 ! A3    A(5,1,8)              130.6936         calculate D2E/DX2 analytically  !
 ! A4    A(1,2,3)              106.1174         calculate D2E/DX2 analytically  !
 ! A5    A(1,2,9)              123.0765         calculate D2E/DX2 analytically  !
 ! A6    A(3,2,9)              126.5682         calculate D2E/DX2 analytically  !
 ! A7    A(2,3,4)              106.1203         calculate D2E/DX2 analytically  !
 ! A8    A(2,3,6)              120.0875         calculate D2E/DX2 analytically  !
 ! A9    A(4,3,6)              133.7905         calculate D2E/DX2 analytically  !
 ! A10   A(3,4,5)              112.3198         calculate D2E/DX2 analytically  !
 ! A11   A(3,4,7)              127.6666         calculate D2E/DX2 analytically  !
 ! A12   A(5,4,7)              120.007          calculate D2E/DX2 analytically  !
 ! A13   A(1,5,4)              104.6639         calculate D2E/DX2 analytically  !
 ! A14   A(1,8,13)             163.419          calculate D2E/DX2 analytically  !
 ! A15   A(2,9,10)             114.2524         calculate D2E/DX2 analytically  !
 ! A16   A(2,9,11)             114.4198         calculate D2E/DX2 analytically  !
 ! A17   A(10,9,11)            131.2934         calculate D2E/DX2 analytically  !
 ! A18   A(9,11,14)            124.0228         calculate D2E/DX2 analytically  !
 ! A19   A(8,13,12)            121.6854         calculate D2E/DX2 analytically  !
 ! A20   A(8,13,14)             72.3855         calculate D2E/DX2 analytically  !
 ! A21   A(12,13,14)            99.7023         calculate D2E/DX2 analytically  !
 ! A22   L(11,14,13,1,-1)      167.5505         calculate D2E/DX2 analytically  !
 ! A23   L(11,14,13,1,-2)      180.1209         calculate D2E/DX2 analytically  !
 ! D1    D(5,1,2,3)             12.3658         calculate D2E/DX2 analytically  !
 ! D2    D(5,1,2,9)            170.5366         calculate D2E/DX2 analytically  !
 ! D3    D(8,1,2,3)            156.0512         calculate D2E/DX2 analytically  !
 ! D4    D(8,1,2,9)            -45.778          calculate D2E/DX2 analytically  !
 ! D5    D(2,1,5,4)            -11.1844         calculate D2E/DX2 analytically  !
 ! D6    D(8,1,5,4)           -142.0958         calculate D2E/DX2 analytically  !
 ! D7    D(2,1,8,13)            -2.4648         calculate D2E/DX2 analytically  !
 ! D8    D(5,1,8,13)           130.0551         calculate D2E/DX2 analytically  !
 ! D9    D(1,2,3,4)             -8.3224         calculate D2E/DX2 analytically  !
 ! D10   D(1,2,3,6)            172.0978         calculate D2E/DX2 analytically  !
 ! D11   D(9,2,3,4)           -165.4953         calculate D2E/DX2 analytically  !
 ! D12   D(9,2,3,6)             14.9249         calculate D2E/DX2 analytically  !
 ! D13   D(1,2,9,10)          -163.5212         calculate D2E/DX2 analytically  !
 ! D14   D(1,2,9,11)            18.3657         calculate D2E/DX2 analytically  !
 ! D15   D(3,2,9,10)            -9.9306         calculate D2E/DX2 analytically  !
 ! D16   D(3,2,9,11)           171.9563         calculate D2E/DX2 analytically  !
 ! D17   D(2,3,4,5)              1.5719         calculate D2E/DX2 analytically  !
 ! D18   D(2,3,4,7)           -177.4811         calculate D2E/DX2 analytically  !
 ! D19   D(6,3,4,5)           -178.9317         calculate D2E/DX2 analytically  !
 ! D20   D(6,3,4,7)              2.0152         calculate D2E/DX2 analytically  !
 ! D21   D(3,4,5,1)              5.9613         calculate D2E/DX2 analytically  !
 ! D22   D(7,4,5,1)           -174.9043         calculate D2E/DX2 analytically  !
 ! D23   D(1,8,13,12)          -52.7346         calculate D2E/DX2 analytically  !
 ! D24   D(1,8,13,14)           37.9423         calculate D2E/DX2 analytically  !
 ! D25   D(2,9,11,14)           36.5302         calculate D2E/DX2 analytically  !
 ! D26   D(10,9,11,14)        -141.1799         calculate D2E/DX2 analytically  !
 ! D27   D(9,11,13,8)          -45.8247         calculate D2E/DX2 analytically  !
 ! D28   D(9,11,13,12)          73.5923         calculate D2E/DX2 analytically  !
 --------------------------------------------------------------------------------
 Trust Radius=3.00D-01 FncErr=5.00D-06 GrdErr=5.00D-06 EigMax=2.50D+02 EigMin=1.00D-04
 Number of steps in this run=     76 maximum allowed number of steps=    100.
 Search for a saddle point of order  1.
 GradGradGradGradGradGradGradGradGradGradGradGradGradGradGradGradGradGrad

                          Input orientation:                          
 ---------------------------------------------------------------------
 Center     Atomic      Atomic             Coordinates (Angstroms)
 Number     Number       Type             X           Y           Z
 ---------------------------------------------------------------------
      1          7           0       -0.470288   -0.968764    0.436034
      2          7           0       -0.343542    0.328509   -0.089506
      3          6           0       -1.626720    0.772407   -0.326459
      4          6           0       -2.449019   -0.311424   -0.125038
      5          7           0       -1.765407   -1.408582    0.258901
      6          1           0       -1.799410    1.795140   -0.614059
      7          1           0       -3.521865   -0.360085   -0.253796
      8          1           0        0.885918   -1.656373    0.115940
      9          6           0        0.839024    1.157471    0.113493
     10          8           0        0.666330    2.355891   -0.129874
     11          8           0        1.864467    0.522203    0.469168
     12          1           0        2.449243   -1.799311   -1.284218
     13          8           0        2.209553   -1.927200   -0.362299
     14          1           0        2.179199   -0.702344    0.025514
 ---------------------------------------------------------------------
                    Distance matrix (angstroms):
                    1          2          3          4          5
     1  N    0.000000
     2  N    1.405409   0.000000
     3  C    2.224951   1.378310   0.000000
     4  C    2.159230   2.200866   1.375295   0.000000
     5  N    1.379184   2.271689   2.262431   1.348514   0.000000
     6  H    3.241670   2.132068   1.076345   2.258040   3.320700
     7  H    3.187237   3.256208   2.208935   1.081640   2.108874
     8  H    1.553885   2.343829   3.522504   3.603992   2.666713
     9  C    2.517778   1.458372   2.534112   3.609124   3.659075
    10  O    3.558860   2.265336   2.793590   4.101218   4.498416
    11  O    2.770408   2.285812   3.589430   4.433303   4.116810
    12  H    3.488945   3.708720   4.913706   5.248855   4.505237
    13  O    2.955923   3.417738   4.691072   4.936529   4.056496
    14  H    2.694307   2.727657   4.096803   4.647138   4.014120
                    6          7          8          9         10
     6  H    0.000000
     7  H    2.782379   0.000000
     8  H    4.433602   4.609297   0.000000
     9  C    2.810211   4.631979   2.814235   0.000000
    10  O    2.574636   4.993281   4.025780   1.235015   0.000000
    11  O    4.027126   5.505786   2.414233   1.257618   2.270858
    12  H    5.605376   6.227943   2.103535   3.645403   4.666583
    13  O    5.476402   5.942792   1.433203   3.408801   4.558555
    14  H    4.740866   5.718154   1.609635   2.294063   3.415512
                   11         12         13         14
    11  O    0.000000
    12  H    2.967449   0.000000
    13  O    2.609597   0.961115   0.000000
    14  H    1.339926   1.729641   1.285143   0.000000
 Stoichiometry    C3H5N3O3(1-,2)
 Framework group  C1[X(C3H5N3O3)]
 Deg. of freedom    36
 Full point group                 C1      NOp   1
 Largest Abelian subgroup         C1      NOp   1
 Largest concise Abelian subgroup C1      NOp   1
                         Standard orientation:                         
 ---------------------------------------------------------------------
 Center     Atomic      Atomic             Coordinates (Angstroms)
 Number     Number       Type             X           Y           Z
 ---------------------------------------------------------------------
      1          7           0        0.472512   -0.975966   -0.435896
      2          7           0        0.355330    0.322267    0.089494
      3          6           0        1.641776    0.757006    0.325706
      4          6           0        2.456190   -0.332717    0.124038
      5          7           0        1.764542   -1.425015   -0.259363
      6          1           0        1.821933    1.778523    0.613046
      7          1           0        3.528727   -0.389036    0.252247
      8          1           0       -0.888414   -1.653795   -0.114983
      9          6           0       -0.821376    1.159641   -0.113029
     10          8           0       -0.639981    2.356833    0.130049
     11          8           0       -1.851526    0.531672   -0.468065
     12          1           0       -2.451994   -1.785310    1.286011
     13          8           0       -2.213705   -1.915062    0.363989
     14          1           0       -2.174786   -0.690518   -0.024044
 ---------------------------------------------------------------------
 Rotational constants (GHZ):           2.0900385           1.4744489           0.9057704
 Standard basis: 6-31+G(d,p) (6D, 7F)
 There are   196 symmetry adapted cartesian basis functions of A   symmetry.
 There are   196 symmetry adapted basis functions of A   symmetry.
   196 basis functions,   323 primitive gaussians,   196 cartesian basis functions
    35 alpha electrons       34 beta electrons
       nuclear repulsion energy       451.3552055536 Hartrees.
 NAtoms=   14 NActive=   14 NUniq=   14 SFac= 1.00D+00 NAtFMM=   60 NAOKFM=F Big=F
 Integral buffers will be    131072 words long.
 Raffenetti 2 integral format.
 Two-electron integral symmetry is turned on.
 Force inversion solution in PCM.
 ------------------------------------------------------------------------------
 Polarizable Continuum Model (PCM)
 =================================
 Model                : PCM.
 Atomic radii         : SMD-Coulomb.
 Polarization charges : Total charges.
 Charge compensation  : None.
 Solution method      : Matrix inversion.
 Cavity type          : VdW (van der Waals Surface) (Alpha=1.000).
 Cavity algorithm     : GePol (No added spheres)
                        Default sphere list used, NSphG=   14.
                        Lebedev-Laikov grids with approx.  5.0 points / Ang**2.
                        Smoothing algorithm: York/Karplus (Gamma=1.0000).
                        Polarization charges: spherical gaussians, with
                                              point-specific exponents (IZeta= 3).
                        Self-potential: point-specific (ISelfS= 7).
                        Self-field    : sphere-specific E.n sum rule (ISelfD= 2).
 1st derivatives      : Analytical E(r).r(x)/FMM algorithm (CHGder, D1EAlg=3).
                        Cavity 1st derivative terms included.
 2nd derivatives      : Analytical E(r).r(xy)/FMM algorithm (CHGder, D2EAlg=3).
                        Cavity 2nd derivative terms included.
 Solvent              : Water, Eps=  78.355300 Eps(inf)=   1.777849
 ------------------------------------------------------------------------------
 Spheres list:
 ISph  on   Nord     Re0    Alpha      Xe            Ye            Ze
    1   N      1    1.8900  1.000      0.472512     -0.975966     -0.435896
    2   N      2    1.8900  1.000      0.355330      0.322267      0.089494
    3   C      3    1.8500  1.000      1.641776      0.757006      0.325706
    4   C      4    1.8500  1.000      2.456190     -0.332717      0.124038
    5   N      5    1.8900  1.000      1.764542     -1.425015     -0.259363
    6   H      6    1.2000  1.000      1.821933      1.778523      0.613046
    7   H      7    1.2000  1.000      3.528727     -0.389036      0.252247
    8   H      8    1.2000  1.000     -0.888414     -1.653795     -0.114983
    9   C      9    1.8500  1.000     -0.821376      1.159641     -0.113029
   10   O     10    1.5200  1.000     -0.639981      2.356833      0.130049
   11   O     11    1.5200  1.000     -1.851526      0.531672     -0.468065
   12   H     12    1.2000  1.000     -2.451994     -1.785310      1.286011
   13   O     13    1.5200  1.000     -2.213705     -1.915062      0.363989
   14   H     14    1.2000  1.000     -2.174786     -0.690518     -0.024044
 ------------------------------------------------------------------------------
 ------------------------------------------------------------------------------
 Atomic radii for non-electrostatic terms: SMD-CDS.
 ------------------------------------------------------------------------------
 Nuclear repulsion after PCM non-electrostatic terms =      451.3625331490 Hartrees.
 One-electron integrals computed using PRISM.
 NBasis=   196 RedAO= T EigKep=  2.98D-05  NBF=   196
 NBsUse=   196 1.00D-06 EigRej= -1.00D+00 NBFU=   196
 ExpMin= 4.38D-02 ExpMax= 5.48D+03 ExpMxC= 8.25D+02 IAcc=3 IRadAn=         5 AccDes= 0.00D+00
 Harris functional with IExCor= 1009 and IRadAn=       5 diagonalized for initial guess.
 HarFok:  IExCor= 1009 AccDes= 0.00D+00 IRadAn=         5 IDoV= 1 UseB2=F ITyADJ=14
 ICtDFT=  3500011 ScaDFX=  1.000000  1.000000  1.000000  1.000000
 FoFCou: FMM=F IPFlag=           0 FMFlag=      100000 FMFlg1=           0
         NFxFlg=           0 DoJE=T BraDBF=F KetDBF=T FulRan=T
         wScrn=  0.000000 ICntrl=       500 IOpCl=  0 I1Cent=   200000004 NGrid=           0
         NMat0=    1 NMatS0=      1 NMatT0=    0 NMatD0=    1 NMtDS0=    0 NMtDT0=    0
 Petite list used in FoFCou.
 Initial guess <Sx>= 0.0000 <Sy>= 0.0000 <Sz>= 0.5000 <S**2>= 0.7500 S= 0.5000
 Requested convergence on RMS density matrix=1.00D-08 within 128 cycles.
 Requested convergence on MAX density matrix=1.00D-06.
 Requested convergence on             energy=1.00D-06.
 No special actions if energy rises.
 Inv3:  Mode=1 IEnd=     4022892.
 Iteration    1 A*A^-1 deviation from unit magnitude is 3.44D-15 for    385.
 Iteration    1 A*A^-1 deviation from orthogonality  is 2.68D-15 for    680    397.
 Iteration    1 A^-1*A deviation from unit magnitude is 3.44D-15 for    385.
 Iteration    1 A^-1*A deviation from orthogonality  is 2.52D-14 for    683    617.
 Error on total polarization charges =  0.05728
 SCF Done:  E(UM062X) =  -507.108320940     A.U. after   18 cycles
            NFock= 18  Conv=0.65D-08     -V/T= 2.0093
 <Sx>= 0.0000 <Sy>= 0.0000 <Sz>= 0.5000 <S**2>= 0.7630 S= 0.5065
 <L.S>=  0.00000000000    
 SMD-CDS (non-electrostatic) energy       (kcal/mol) =       4.60
 (included in total energy above)
 Annihilation of the first spin contaminant:
 S**2 before annihilation     0.7630,   after     0.7501
 DoSCS=F DFT=T ScalE2(SS,OS)=  1.000000  1.000000
 Range of M.O.s used for correlation:     1   196
 NBasis=   196 NAE=    35 NBE=    34 NFC=     0 NFV=     0
 NROrb=    196 NOA=    35 NOB=    34 NVA=   161 NVB=   162

 **** Warning!!: The largest alpha MO coefficient is  0.49139877D+02


 **** Warning!!: The largest beta MO coefficient is  0.48506325D+02

 Symmetrizing basis deriv contribution to polar:
 IMax=3 JMax=2 DiffMx= 0.00D+00
 G2DrvN: will do    15 centers at a time, making    1 passes.
 Calling FoFCou, ICntrl=  3107 FMM=F I1Cent=   0 AccDes= 0.00D+00.
 NEqPCM:  Using equilibrium solvation (IEInf=0, Eps=  78.3553, EpsInf=   1.7778)
 G2PCM: DoFxE=T DoFxN=T DoGrad=T DoDP/DQ/DG/TGxP=FFFF NFrqRd=   0 IEInf=0 SqF1=F DoCFld=F IF1Alg=4.
 End of G2Drv F.D. properties file   721 does not exist.
 End of G2Drv F.D. properties file   722 does not exist.
 End of G2Drv F.D. properties file   788 does not exist.
          IDoAtm=11111111111111
 NEqPCM:  Using equilibrium solvation (IEInf=0, Eps=  78.3553, EpsInf=   1.7778)
          Differentiating once with respect to nuclear coordinates.
 Keep R1 and R2 ints in memory in canonical form, NReq=397284511.
          There are    45 degrees of freedom in the 1st order CPHF.  IDoFFX=6 NUNeed=     0.
     39 vectors produced by pass  0 Test12= 2.48D-14 2.22D-09 XBig12= 2.31D-01 1.00D-01.
 AX will form    39 AO Fock derivatives at one time.
     39 vectors produced by pass  1 Test12= 2.48D-14 2.22D-09 XBig12= 2.32D-02 4.81D-02.
     39 vectors produced by pass  2 Test12= 2.48D-14 2.22D-09 XBig12= 1.31D-03 6.17D-03.
     39 vectors produced by pass  3 Test12= 2.48D-14 2.22D-09 XBig12= 2.23D-05 6.92D-04.
     39 vectors produced by pass  4 Test12= 2.48D-14 2.22D-09 XBig12= 2.78D-07 6.81D-05.
     39 vectors produced by pass  5 Test12= 2.48D-14 2.22D-09 XBig12= 2.76D-09 7.35D-06.
     39 vectors produced by pass  6 Test12= 2.48D-14 2.22D-09 XBig12= 2.72D-11 6.71D-07.
     27 vectors produced by pass  7 Test12= 2.48D-14 2.22D-09 XBig12= 2.13D-13 4.30D-08.
      7 vectors produced by pass  8 Test12= 2.48D-14 2.22D-09 XBig12= 1.61D-15 4.00D-09.
 InvSVY:  IOpt=1 It=  1 EMax= 1.89D-15
 Solved reduced A of dimension   307 with    39 vectors.
 End of Minotr F.D. properties file   721 does not exist.
 End of Minotr F.D. properties file   722 does not exist.
 End of Minotr F.D. properties file   788 does not exist.

 **********************************************************************

            Population analysis using the SCF density.

 **********************************************************************

 Orbital symmetries:
 Alpha Orbitals:
       Occupied  (A) (A) (A) (A) (A) (A) (A) (A) (A) (A) (A) (A)
                 (A) (A) (A) (A) (A) (A) (A) (A) (A) (A) (A) (A)
                 (A) (A) (A) (A) (A) (A) (A) (A) (A) (A) (A)
       Virtual   (A) (A) (A) (A) (A) (A) (A) (A) (A) (A) (A) (A)
                 (A) (A) (A) (A) (A) (A) (A) (A) (A) (A) (A) (A)
                 (A) (A) (A) (A) (A) (A) (A) (A) (A) (A) (A) (A)
                 (A) (A) (A) (A) (A) (A) (A) (A) (A) (A) (A) (A)
                 (A) (A) (A) (A) (A) (A) (A) (A) (A) (A) (A) (A)
                 (A) (A) (A) (A) (A) (A) (A) (A) (A) (A) (A) (A)
                 (A) (A) (A) (A) (A) (A) (A) (A) (A) (A) (A) (A)
                 (A) (A) (A) (A) (A) (A) (A) (A) (A) (A) (A) (A)
                 (A) (A) (A) (A) (A) (A) (A) (A) (A) (A) (A) (A)
                 (A) (A) (A) (A) (A) (A) (A) (A) (A) (A) (A) (A)
                 (A) (A) (A) (A) (A) (A) (A) (A) (A) (A) (A) (A)
                 (A) (A) (A) (A) (A) (A) (A) (A) (A) (A) (A) (A)
                 (A) (A) (A) (A) (A) (A) (A) (A) (A) (A) (A) (A)
                 (A) (A) (A) (A) (A)
 Beta  Orbitals:
       Occupied  (A) (A) (A) (A) (A) (A) (A) (A) (A) (A) (A) (A)
                 (A) (A) (A) (A) (A) (A) (A) (A) (A) (A) (A) (A)
                 (A) (A) (A) (A) (A) (A) (A) (A) (A) (A)
       Virtual   (A) (A) (A) (A) (A) (A) (A) (A) (A) (A) (A) (A)
                 (A) (A) (A) (A) (A) (A) (A) (A) (A) (A) (A) (A)
                 (A) (A) (A) (A) (A) (A) (A) (A) (A) (A) (A) (A)
                 (A) (A) (A) (A) (A) (A) (A) (A) (A) (A) (A) (A)
                 (A) (A) (A) (A) (A) (A) (A) (A) (A) (A) (A) (A)
                 (A) (A) (A) (A) (A) (A) (A) (A) (A) (A) (A) (A)
                 (A) (A) (A) (A) (A) (A) (A) (A) (A) (A) (A) (A)
                 (A) (A) (A) (A) (A) (A) (A) (A) (A) (A) (A) (A)
                 (A) (A) (A) (A) (A) (A) (A) (A) (A) (A) (A) (A)
                 (A) (A) (A) (A) (A) (A) (A) (A) (A) (A) (A) (A)
                 (A) (A) (A) (A) (A) (A) (A) (A) (A) (A) (A) (A)
                 (A) (A) (A) (A) (A) (A) (A) (A) (A) (A) (A) (A)
                 (A) (A) (A) (A) (A) (A) (A) (A) (A) (A) (A) (A)
                 (A) (A) (A) (A) (A) (A)
 The electronic state is 2-A.
 Alpha  occ. eigenvalues --  -19.66080 -19.64840 -19.62359 -14.82205 -14.81272
 Alpha  occ. eigenvalues --  -14.76844 -10.70432 -10.56318 -10.56231  -1.22001
 Alpha  occ. eigenvalues --   -1.15602  -1.12409  -1.10293  -0.98557  -0.87755
 Alpha  occ. eigenvalues --   -0.75289  -0.67670  -0.65044  -0.63497  -0.56904
 Alpha  occ. eigenvalues --   -0.55760  -0.54475  -0.52626  -0.49799  -0.48875
 Alpha  occ. eigenvalues --   -0.45999  -0.45573  -0.39495  -0.38929  -0.38012
 Alpha  occ. eigenvalues --   -0.37299  -0.36590  -0.34647  -0.32308  -0.15803
 Alpha virt. eigenvalues --    0.02583   0.04169   0.05129   0.05655   0.05964
 Alpha virt. eigenvalues --    0.06492   0.07149   0.08586   0.09741   0.09977
 Alpha virt. eigenvalues --    0.11587   0.12244   0.13047   0.14316   0.15913
 Alpha virt. eigenvalues --    0.16459   0.16833   0.18188   0.19561   0.20204
 Alpha virt. eigenvalues --    0.21590   0.22194   0.22832   0.23673   0.24665
 Alpha virt. eigenvalues --    0.25129   0.25482   0.25873   0.26629   0.26912
 Alpha virt. eigenvalues --    0.28023   0.28287   0.29325   0.29716   0.30765
 Alpha virt. eigenvalues --    0.31445   0.32235   0.32381   0.33518   0.34227
 Alpha virt. eigenvalues --    0.35905   0.37514   0.38689   0.40290   0.41028
 Alpha virt. eigenvalues --    0.45003   0.46822   0.49393   0.50221   0.53373
 Alpha virt. eigenvalues --    0.64985   0.73832   0.75464   0.78581   0.82098
 Alpha virt. eigenvalues --    0.83172   0.87584   0.89386   0.91082   0.95194
 Alpha virt. eigenvalues --    0.96137   0.98910   0.99538   1.00780   1.01765
 Alpha virt. eigenvalues --    1.04406   1.06283   1.07110   1.08452   1.11676
 Alpha virt. eigenvalues --    1.14264   1.15923   1.17518   1.18353   1.20587
 Alpha virt. eigenvalues --    1.23214   1.25549   1.29165   1.30365   1.31591
 Alpha virt. eigenvalues --    1.33028   1.34837   1.36295   1.37153   1.40085
 Alpha virt. eigenvalues --    1.41783   1.42040   1.46039   1.48563   1.50162
 Alpha virt. eigenvalues --    1.50570   1.52273   1.53821   1.56061   1.58929
 Alpha virt. eigenvalues --    1.60691   1.62906   1.64377   1.70174   1.75591
 Alpha virt. eigenvalues --    1.76883   1.80551   1.83328   1.85803   1.89923
 Alpha virt. eigenvalues --    1.92537   1.93602   1.97836   1.98864   2.02704
 Alpha virt. eigenvalues --    2.04055   2.06051   2.11194   2.15331   2.18122
 Alpha virt. eigenvalues --    2.18762   2.22222   2.24505   2.27077   2.31295
 Alpha virt. eigenvalues --    2.32361   2.33365   2.34203   2.40574   2.43706
 Alpha virt. eigenvalues --    2.45502   2.50334   2.55463   2.56811   2.58172
 Alpha virt. eigenvalues --    2.61432   2.63290   2.66051   2.72440   2.74477
 Alpha virt. eigenvalues --    2.76755   2.80960   2.85210   2.86573   2.88513
 Alpha virt. eigenvalues --    2.92362   2.96251   3.06411   3.08289   3.12001
 Alpha virt. eigenvalues --    3.21347   3.25570   3.31589   3.34196   3.44310
 Alpha virt. eigenvalues --    3.73170   3.76036   4.03597   4.20593   4.24477
 Alpha virt. eigenvalues --    4.26365   4.31278   4.46933   4.56396   4.64802
 Alpha virt. eigenvalues --    4.71914
  Beta  occ. eigenvalues --  -19.66049 -19.64794 -19.62258 -14.81957 -14.80761
  Beta  occ. eigenvalues --  -14.76397 -10.70390 -10.56388 -10.56082  -1.21631
  Beta  occ. eigenvalues --   -1.14524  -1.12180  -1.10166  -0.97288  -0.86790
  Beta  occ. eigenvalues --   -0.74119  -0.67138  -0.64807  -0.62721  -0.56457
  Beta  occ. eigenvalues --   -0.54534  -0.54080  -0.52229  -0.48544  -0.48051
  Beta  occ. eigenvalues --   -0.45771  -0.45043  -0.38896  -0.38173  -0.37014
  Beta  occ. eigenvalues --   -0.36683  -0.34219  -0.32760  -0.29092
  Beta virt. eigenvalues --    0.00064   0.02200   0.04054   0.04816   0.05185
  Beta virt. eigenvalues --    0.06231   0.06558   0.07421   0.08359   0.09231
  Beta virt. eigenvalues --    0.10716   0.11384   0.11984   0.12973   0.14221
  Beta virt. eigenvalues --    0.15433   0.16587   0.16773   0.17464   0.19574
  Beta virt. eigenvalues --    0.20094   0.21343   0.22211   0.22886   0.23457
  Beta virt. eigenvalues --    0.24405   0.25076   0.25307   0.25900   0.26459
  Beta virt. eigenvalues --    0.27072   0.27982   0.28165   0.29337   0.29501
  Beta virt. eigenvalues --    0.30777   0.31280   0.32156   0.32507   0.33481
  Beta virt. eigenvalues --    0.34028   0.35706   0.37415   0.38381   0.40227
  Beta virt. eigenvalues --    0.40866   0.45145   0.46870   0.49738   0.50425
  Beta virt. eigenvalues --    0.53634   0.65252   0.73952   0.75296   0.79295
  Beta virt. eigenvalues --    0.82232   0.83426   0.87704   0.89573   0.91225
  Beta virt. eigenvalues --    0.95718   0.96751   0.99433   0.99740   1.01557
  Beta virt. eigenvalues --    1.03487   1.05202   1.06707   1.07431   1.08943
  Beta virt. eigenvalues --    1.11830   1.14426   1.16149   1.17350   1.18408
  Beta virt. eigenvalues --    1.20717   1.23399   1.25829   1.29317   1.30484
  Beta virt. eigenvalues --    1.31829   1.33523   1.35053   1.36608   1.37352
  Beta virt. eigenvalues --    1.40263   1.42074   1.42332   1.46244   1.49013
  Beta virt. eigenvalues --    1.50453   1.51000   1.53072   1.54376   1.56185
  Beta virt. eigenvalues --    1.59215   1.60860   1.63442   1.64674   1.70243
  Beta virt. eigenvalues --    1.75719   1.77007   1.80844   1.83512   1.86036
  Beta virt. eigenvalues --    1.90316   1.92880   1.93885   1.98049   1.99049
  Beta virt. eigenvalues --    2.03047   2.04434   2.06245   2.11683   2.15811
  Beta virt. eigenvalues --    2.18357   2.19173   2.22672   2.24810   2.27711
  Beta virt. eigenvalues --    2.31839   2.32724   2.33664   2.34815   2.41000
  Beta virt. eigenvalues --    2.43867   2.46007   2.50561   2.55783   2.57425
  Beta virt. eigenvalues --    2.58528   2.61909   2.63582   2.66391   2.72836
  Beta virt. eigenvalues --    2.74768   2.77314   2.81340   2.85631   2.86860
  Beta virt. eigenvalues --    2.89118   2.92677   2.96679   3.06707   3.08560
  Beta virt. eigenvalues --    3.12189   3.21583   3.25874   3.31885   3.34437
  Beta virt. eigenvalues --    3.44363   3.73261   3.76426   4.03985   4.20635
  Beta virt. eigenvalues --    4.24574   4.26419   4.31367   4.46759   4.57050
  Beta virt. eigenvalues --    4.64899   4.72681
          Condensed to atoms (all electrons):
               1          2          3          4          5          6
     1  N    7.552274  -0.330554  -0.280430   0.231439  -0.113021   0.006181
     2  N   -0.330554   7.552233   0.244494  -0.196294   0.147955  -0.047962
     3  C   -0.280430   0.244494   6.449764  -0.309253  -0.058805   0.431189
     4  C    0.231439  -0.196294  -0.309253   5.806881   0.205419  -0.042562
     5  N   -0.113021   0.147955  -0.058805   0.205419   7.284772   0.002768
     6  H    0.006181  -0.047962   0.431189  -0.042562   0.002768   0.444604
     7  H    0.013888  -0.009750  -0.014041   0.385867  -0.050406   0.000442
     8  H    0.145931   0.033964   0.018108  -0.005043  -0.018896  -0.000023
     9  C    0.002814   0.225103  -0.282661   0.063212   0.011027  -0.011440
    10  O    0.019067  -0.167799  -0.026003   0.030742  -0.005146  -0.001607
    11  O    0.014926  -0.177268   0.045617  -0.006757   0.004497  -0.000431
    12  H    0.002581  -0.001800   0.000160  -0.000470  -0.000132  -0.000000
    13  O   -0.096291   0.043913   0.017123  -0.007791   0.008716   0.000028
    14  H   -0.017989   0.020727   0.007986  -0.005449   0.006581   0.000003
               7          8          9         10         11         12
     1  N    0.013888   0.145931   0.002814   0.019067   0.014926   0.002581
     2  N   -0.009750   0.033964   0.225103  -0.167799  -0.177268  -0.001800
     3  C   -0.014041   0.018108  -0.282661  -0.026003   0.045617   0.000160
     4  C    0.385867  -0.005043   0.063212   0.030742  -0.006757  -0.000470
     5  N   -0.050406  -0.018896   0.011027  -0.005146   0.004497  -0.000132
     6  H    0.000442  -0.000023  -0.011440  -0.001607  -0.000431  -0.000000
     7  H    0.474622  -0.000026  -0.000558  -0.000106   0.000016  -0.000000
     8  H   -0.000026   0.346035  -0.012219   0.000675   0.004210  -0.004038
     9  C   -0.000558  -0.012219   4.487763   0.443507   0.265092   0.000676
    10  O   -0.000106   0.000675   0.443507   8.519841  -0.110021   0.000044
    11  O    0.000016   0.004210   0.265092  -0.110021   8.659938   0.000844
    12  H   -0.000000  -0.004038   0.000676   0.000044   0.000844   0.281344
    13  O    0.000016   0.077230  -0.010225  -0.002138  -0.064639   0.284308
    14  H    0.000000  -0.003144  -0.011689   0.001111   0.082501  -0.008567
              13         14
     1  N   -0.096291  -0.017989
     2  N    0.043913   0.020727
     3  C    0.017123   0.007986
     4  C   -0.007791  -0.005449
     5  N    0.008716   0.006581
     6  H    0.000028   0.000003
     7  H    0.000016   0.000000
     8  H    0.077230  -0.003144
     9  C   -0.010225  -0.011689
    10  O   -0.002138   0.001111
    11  O   -0.064639   0.082501
    12  H    0.284308  -0.008567
    13  O    8.478150   0.155859
    14  H    0.155859   0.271557
          Atomic-Atomic Spin Densities.
               1          2          3          4          5          6
     1  N    0.625895  -0.198164   0.161927  -0.007117  -0.280425  -0.000293
     2  N   -0.198164   0.362174  -0.217334   0.010398   0.083353   0.002561
     3  C    0.161927  -0.217334   0.408576   0.054357  -0.080123  -0.007232
     4  C   -0.007117   0.010398   0.054357  -0.185926  -0.033330   0.004196
     5  N   -0.280425   0.083353  -0.080123  -0.033330   0.656365  -0.000412
     6  H   -0.000293   0.002561  -0.007232   0.004196  -0.000412  -0.011945
     7  H    0.001915  -0.000161  -0.002050   0.004089  -0.002729   0.000013
     8  H    0.024260  -0.006707  -0.006649   0.004778  -0.018157   0.000002
     9  C   -0.048401   0.089686  -0.038344   0.005885  -0.002968   0.001018
    10  O    0.006778  -0.025683   0.019055  -0.001181  -0.001202   0.000128
    11  O    0.016054  -0.026153   0.008198  -0.001442  -0.001431   0.000080
    12  H    0.000806  -0.000585   0.000092   0.000000  -0.000327  -0.000000
    13  O   -0.009963   0.005193   0.001798  -0.001670   0.009953  -0.000001
    14  H    0.000359  -0.000730  -0.000287   0.000109  -0.000345  -0.000000
               7          8          9         10         11         12
     1  N    0.001915   0.024260  -0.048401   0.006778   0.016054   0.000806
     2  N   -0.000161  -0.006707   0.089686  -0.025683  -0.026153  -0.000585
     3  C   -0.002050  -0.006649  -0.038344   0.019055   0.008198   0.000092
     4  C    0.004089   0.004778   0.005885  -0.001181  -0.001442   0.000000
     5  N   -0.002729  -0.018157  -0.002968  -0.001202  -0.001431  -0.000327
     6  H    0.000013   0.000002   0.001018   0.000128   0.000080  -0.000000
     7  H    0.003006   0.000001  -0.000018   0.000003   0.000002   0.000000
     8  H    0.000001   0.034285   0.005773   0.000095   0.001314   0.000345
     9  C   -0.000018   0.005773   0.112290  -0.041821  -0.026269  -0.000043
    10  O    0.000003   0.000095  -0.041821   0.084083   0.008535   0.000015
    11  O    0.000002   0.001314  -0.026269   0.008535   0.043094   0.000360
    12  H    0.000000   0.000345  -0.000043   0.000015   0.000360  -0.000292
    13  O   -0.000001  -0.018700  -0.002445  -0.000158  -0.002508  -0.000212
    14  H   -0.000000   0.001139   0.000400   0.000014   0.000997   0.000164
              13         14
     1  N   -0.009963   0.000359
     2  N    0.005193  -0.000730
     3  C    0.001798  -0.000287
     4  C   -0.001670   0.000109
     5  N    0.009953  -0.000345
     6  H   -0.000001  -0.000000
     7  H   -0.000001  -0.000000
     8  H   -0.018700   0.001139
     9  C   -0.002445   0.000400
    10  O   -0.000158   0.000014
    11  O   -0.002508   0.000997
    12  H   -0.000212   0.000164
    13  O    0.026643  -0.001854
    14  H   -0.001854   0.000606
 Mulliken charges and spin densities:
               1          2
     1  N   -0.150817   0.293630
     2  N   -0.336962   0.077846
     3  C   -0.243249   0.301984
     4  C   -0.149941  -0.146854
     5  N   -0.425329   0.328222
     6  H    0.218810  -0.011885
     7  H    0.200036   0.004070
     8  H    0.417236   0.021778
     9  C    0.829600   0.054744
    10  O   -0.702166   0.048663
    11  O   -0.718525   0.020832
    12  H    0.445050   0.000324
    13  O   -0.884258   0.006074
    14  H    0.500513   0.000572
 Sum of Mulliken charges =  -1.00000   1.00000
 Mulliken charges and spin densities with hydrogens summed into heavy atoms:
               1          2
     1  N   -0.150817   0.293630
     2  N   -0.336962   0.077846
     3  C   -0.024439   0.290099
     4  C    0.050095  -0.142784
     5  N   -0.425329   0.328222
     9  C    0.829600   0.054744
    10  O   -0.702166   0.048663
    11  O   -0.718525   0.020832
    13  O    0.478542   0.028747
 APT charges:
               1
     1  N   -0.420680
     2  N   -0.317654
     3  C   -0.662290
     4  C   -0.457788
     5  N   -0.394304
     6  H    0.566866
     7  H    0.793901
     8  H    0.421182
     9  C    0.377109
    10  O   -0.465178
    11  O   -0.595025
    12  H    0.711188
    13  O   -0.989104
    14  H    0.431777
 Sum of APT charges =  -1.00000
 APT charges with hydrogens summed into heavy atoms:
               1
     1  N   -0.420680
     2  N   -0.317654
     3  C   -0.095424
     4  C    0.336113
     5  N   -0.394304
     9  C    0.377109
    10  O   -0.465178
    11  O   -0.595025
    13  O    0.575043
 Electronic spatial extent (au):  <R**2>=           1238.3577
 Charge=             -1.0000 electrons
 Dipole moment (field-independent basis, Debye):
    X=              1.0221    Y=             -1.1587    Z=              3.5574  Tot=              3.8785
 Quadrupole moment (field-independent basis, Debye-Ang):
   XX=            -62.9434   YY=            -81.4870   ZZ=            -55.6594
   XY=             10.3412   XZ=             -3.8167   YZ=             -4.1475
 Traceless Quadrupole moment (field-independent basis, Debye-Ang):
   XX=              3.7532   YY=            -14.7904   ZZ=             11.0372
   XY=             10.3412   XZ=             -3.8167   YZ=             -4.1475
 Octapole moment (field-independent basis, Debye-Ang**2):
  XXX=              7.1001  YYY=            -11.0675  ZZZ=              7.7315  XYY=              5.9054
  XXY=             10.3802  XXZ=             22.1980  XZZ=            -17.4360  YZZ=             -3.5832
  YYZ=              6.4218  XYZ=              4.8694
 Hexadecapole moment (field-independent basis, Debye-Ang**3):
 XXXX=           -872.9792 YYYY=           -790.3815 ZZZZ=            -92.8034 XXXY=             24.0793
 XXXZ=            -27.3332 YYYX=             46.1667 YYYZ=            -17.1922 ZZZX=            -18.7002
 ZZZY=            -17.1274 XXYY=           -318.6028 XXZZ=           -159.5022 YYZZ=           -114.4941
 XXYZ=            -19.7086 YYXZ=             -2.5658 ZZXY=             21.9073
 N-N= 4.513625331490D+02 E-N=-2.102250700991D+03  KE= 5.024598249184D+02
  Exact polarizability:   0.000   0.000   0.000   0.000   0.000   0.000
 Approx polarizability: 118.034  -2.437 120.422   1.450   7.547  67.872
                          Isotropic Fermi Contact Couplings
        Atom                 a.u.       MegaHertz       Gauss      10(-4) cm-1
     1  N(14)              0.10171      32.86284      11.72628      10.96186
     2  N(14)              0.02416       7.80749       2.78591       2.60430
     3  C(13)              0.03665      41.20530      14.70308      13.74461
     4  C(13)             -0.03116     -35.03525     -12.50145     -11.68650
     5  N(14)              0.08183      26.43805       9.43375       8.81878
     6  H(1)              -0.00397     -17.73210      -6.32725      -5.91479
     7  H(1)               0.00101       4.49277       1.60313       1.49863
     8  H(1)               0.01014      45.33923      16.17816      15.12354
     9  C(13)              0.01298      14.59031       5.20618       4.86680
    10  O(17)              0.01142      -6.92030      -2.46934      -2.30836
    11  O(17)              0.00511      -3.09840      -1.10559      -1.03351
    12  H(1)              -0.00006      -0.26641      -0.09506      -0.08887
    13  O(17)              0.02129     -12.90698      -4.60553      -4.30530
    14  H(1)               0.00007       0.32320       0.11533       0.10781
 --------------------------------------------------------
       Center         ----  Spin Dipole Couplings  ----
                      3XX-RR        3YY-RR        3ZZ-RR
 --------------------------------------------------------
     1   Atom       -0.360718     -0.292510      0.653228
     2   Atom       -0.180028     -0.184886      0.364914
     3   Atom       -0.115539     -0.091706      0.207245
     4   Atom        0.048316      0.047769     -0.096085
     5   Atom       -0.343631     -0.282779      0.626410
     6   Atom       -0.017029      0.018314     -0.001285
     7   Atom        0.000845      0.004314     -0.005160
     8   Atom        0.018629     -0.004767     -0.013863
     9   Atom       -0.012568     -0.040832      0.053401
    10   Atom       -0.073217     -0.100065      0.173282
    11   Atom       -0.027079     -0.048963      0.076042
    12   Atom        0.002019     -0.002215      0.000196
    13   Atom        0.029852     -0.010210     -0.019641
    14   Atom        0.005517      0.000830     -0.006347
 --------------------------------------------------------
                        XY            XZ            YZ
 --------------------------------------------------------
     1   Atom        0.018116     -0.081011     -0.263579
     2   Atom        0.012660     -0.123077     -0.100131
     3   Atom        0.016965     -0.038354     -0.086021
     4   Atom        0.000998      0.022315      0.044384
     5   Atom        0.030908     -0.112590     -0.254904
     6   Atom        0.008028      0.000891      0.005710
     7   Atom        0.001959      0.001722      0.003200
     8   Atom        0.014151     -0.000260     -0.000732
     9   Atom       -0.010511     -0.052428      0.006227
    10   Atom        0.004117     -0.082290     -0.014663
    11   Atom       -0.003980     -0.051866      0.005444
    12   Atom        0.002090     -0.003396     -0.000746
    13   Atom        0.027879     -0.004470     -0.002074
    14   Atom        0.000998     -0.001046     -0.000881
 --------------------------------------------------------


 ---------------------------------------------------------------------------------
              Anisotropic Spin Dipole Couplings in Principal Axis System
 ---------------------------------------------------------------------------------

       Atom             a.u.   MegaHertz   Gauss  10(-4) cm-1        Axes

              Baa    -0.3682   -14.199    -5.067    -4.736  0.9270  0.3388  0.1610
     1 N(14)  Bbb    -0.3599   -13.880    -4.953    -4.630 -0.3673  0.9069  0.2066
              Bcc     0.7280    28.079    10.019     9.366 -0.0760 -0.2506  0.9651
 
              Baa    -0.2131    -8.220    -2.933    -2.742  0.7548  0.6002  0.2647
     2 N(14)  Bbb    -0.1953    -7.534    -2.688    -2.513 -0.6230  0.7822  0.0029
              Bcc     0.4085    15.754     5.621     5.255 -0.2053 -0.1671  0.9643
 
              Baa    -0.1246   -16.723    -5.967    -5.578  0.8331 -0.5512 -0.0466
     3 C(13)  Bbb    -0.1105   -14.829    -5.291    -4.946  0.5405  0.7934  0.2800
              Bcc     0.2351    31.552    11.258    10.525 -0.1174 -0.2585  0.9589
 
              Baa    -0.1115   -14.961    -5.339    -4.991 -0.1317 -0.2653  0.9551
     4 C(13)  Bbb     0.0474     6.356     2.268     2.120  0.8727 -0.4880 -0.0152
              Bcc     0.0641     8.605     3.070     2.870  0.4701  0.8315  0.2958
 
              Baa    -0.3569   -13.765    -4.912    -4.591  0.9762 -0.2092  0.0576
     5 N(14)  Bbb    -0.3491   -13.464    -4.804    -4.491  0.1867  0.9450  0.2685
              Bcc     0.7060    27.228     9.716     9.082 -0.1105 -0.2513  0.9616
 
              Baa    -0.0188   -10.017    -3.574    -3.341  0.9765 -0.2145  0.0203
     6 H(1)   Bbb    -0.0027    -1.461    -0.521    -0.487 -0.0719 -0.2355  0.9692
              Bcc     0.0215    11.478     4.096     3.829  0.2031  0.9479  0.2454
 
              Baa    -0.0063    -3.368    -1.202    -1.123 -0.1587 -0.2578  0.9531
     7 H(1)   Bbb    -0.0000    -0.015    -0.005    -0.005  0.9016 -0.4313  0.0334
              Bcc     0.0063     3.383     1.207     1.128  0.4025  0.8646  0.3009
 
              Baa    -0.0140    -7.464    -2.663    -2.490 -0.0774  0.1963  0.9775
     8 H(1)   Bbb    -0.0113    -6.035    -2.153    -2.013 -0.4193  0.8831 -0.2105
              Bcc     0.0253    13.498     4.817     4.503  0.9046  0.4261 -0.0140
 
              Baa    -0.0478    -6.414    -2.289    -2.139  0.6417  0.7105  0.2888
     9 C(13)  Bbb    -0.0355    -4.758    -1.698    -1.587 -0.5938  0.6986 -0.3993
              Bcc     0.0833    11.172     3.986     3.727 -0.4854  0.0848  0.8702
 
              Baa    -0.1009     7.299     2.605     2.435  0.0954  0.9921  0.0817
    10 O(17)  Bbb    -0.0981     7.100     2.534     2.368  0.9524 -0.1148  0.2825
              Bcc     0.1990   -14.400    -5.138    -4.803 -0.2897 -0.0508  0.9558
 
              Baa    -0.0506     3.659     1.306     1.220  0.6017  0.7697  0.2134
    11 O(17)  Bbb    -0.0473     3.426     1.222     1.143  0.7003 -0.6368  0.3225
              Bcc     0.0979    -7.085    -2.528    -2.363 -0.3841  0.0446  0.9222
 
              Baa    -0.0033    -1.760    -0.628    -0.587 -0.5260  0.7772 -0.3453
    12 H(1)   Bbb    -0.0019    -1.029    -0.367    -0.343  0.3445  0.5660  0.7490
              Bcc     0.0052     2.789     0.995     0.930  0.7776  0.2750 -0.5655
 
              Baa    -0.0245     1.774     0.633     0.592 -0.4587  0.8876 -0.0429
    13 O(17)  Bbb    -0.0200     1.448     0.517     0.483  0.0484  0.0731  0.9961
              Bcc     0.0445    -3.222    -1.150    -1.075  0.8873  0.4548 -0.0765
 
              Baa    -0.0065    -3.481    -1.242    -1.161  0.0771  0.1083  0.9911
    14 H(1)   Bbb     0.0007     0.365     0.130     0.122 -0.2198  0.9715 -0.0891
              Bcc     0.0058     3.116     1.112     1.039  0.9725  0.2110 -0.0987
 

 ---------------------------------------------------------------------------------

 D2PCM: PCM CHGder 2nd derivatives, FixD1E=F FixD2E=F DoIter=F DoCFld=F I1PDM=0
 Calling FoFJK, ICntrl=    100147 FMM=F ISym2X=0 I1Cent= 0 IOpClX= 1 NMat=1 NMatS=1 NMatT=0.
 ***** Axes restored to original set *****
 -------------------------------------------------------------------
 Center     Atomic                   Forces (Hartrees/Bohr)
 Number     Number              X              Y              Z
 -------------------------------------------------------------------
      1        7           0.063814274   -0.028721724   -0.008352128
      2        7           0.015840339    0.006394573    0.013083365
      3        6          -0.008815964    0.006135653   -0.003079855
      4        6          -0.003130389    0.006239393   -0.005202892
      5        7           0.017937782    0.004905519    0.002069630
      6        1          -0.003925774   -0.000196546   -0.001836615
      7        1           0.000088220    0.001048758   -0.000490048
      8        1          -0.025286842    0.003283259   -0.016913967
      9        6          -0.067912758   -0.023324593   -0.019746626
     10        8           0.013655046    0.010179421    0.003706832
     11        8           0.042834893   -0.024166740    0.003413313
     12        1          -0.008167591   -0.001432631   -0.011677385
     13        8          -0.033138607    0.059630847    0.049539537
     14        1          -0.003792630   -0.019975188   -0.004513162
 -------------------------------------------------------------------
 Cartesian Forces:  Max     0.067912758 RMS     0.023383274
 FormGI is forming the generalized inverse of G from B-inverse, IUseBI=4.

 GradGradGradGradGradGradGradGradGradGradGradGradGradGradGradGradGradGrad
 Berny optimization.
 Internal  Forces:  Max     0.061054947 RMS     0.013668513
 Search for a saddle point.
 Step number   1 out of a maximum of   76
 All quantities printed in internal units (Hartrees-Bohrs-Radians)
 Swapping is turned off.
 Second derivative matrix not updated -- analytic derivatives used.
 ITU=  0
     Eigenvalues ---   -0.08776  -0.03879   0.00037   0.00182   0.00464
     Eigenvalues ---    0.00735   0.00856   0.01728   0.02046   0.02312
     Eigenvalues ---    0.02520   0.02823   0.03988   0.04840   0.05395
     Eigenvalues ---    0.05999   0.06973   0.09811   0.10494   0.11065
     Eigenvalues ---    0.11723   0.15642   0.19856   0.21815   0.24147
     Eigenvalues ---    0.27461   0.30020   0.35384   0.38022   0.39203
     Eigenvalues ---    0.40608   0.45425   0.51696   0.56196   0.58039
     Eigenvalues ---    0.77990
 Eigenvectors required to have negative eigenvalues:
                          R10       R3        R13       R15       A19
   1                   -0.62593   0.53785  -0.37237   0.37227  -0.09382
                          A3        D28       R5        A17       R12
   1                    0.06835  -0.06165  -0.05363  -0.05263   0.04566
 RFO step:  Lambda0=4.577003253D-04 Lambda=-8.13640881D-02.
 Linear search not attempted -- option 19 set.
 Maximum step size (   0.300) exceeded in Quadratic search.
    -- Step size scaled by   0.278
 Iteration  1 RMS(Cart)=  0.05021173 RMS(Int)=  0.00195147
 Iteration  2 RMS(Cart)=  0.00226633 RMS(Int)=  0.00014246
 Iteration  3 RMS(Cart)=  0.00000205 RMS(Int)=  0.00014244
 Iteration  4 RMS(Cart)=  0.00000000 RMS(Int)=  0.00014244
 Variable       Old X    -DE/DX   Delta X   Delta X   Delta X     New X
                                 (Linear)    (Quad)   (Total)
    R1        2.65584  -0.00152   0.00000   0.00095   0.00093   2.65676
    R2        2.60628  -0.01147   0.00000  -0.01123  -0.01122   2.59506
    R3        2.93642  -0.06105   0.00000  -0.21477  -0.21479   2.72163
    R4        2.60463   0.01122   0.00000   0.00650   0.00650   2.61113
    R5        2.75592  -0.02824   0.00000  -0.04645  -0.04658   2.70934
    R6        2.59893  -0.00645   0.00000  -0.00137  -0.00139   2.59754
    R7        2.03400   0.00093   0.00000   0.00030   0.00030   2.03430
    R8        2.54832   0.00813   0.00000   0.00110   0.00109   2.54941
    R9        2.04400  -0.00008   0.00000  -0.00049  -0.00049   2.04351
   R10        2.70836  -0.04168   0.00000  -0.06345  -0.06346   2.64490
   R11        2.33384   0.00724   0.00000   0.00114   0.00114   2.33497
   R12        2.37655   0.02966   0.00000   0.02715   0.02711   2.40366
   R13        2.53209  -0.02601   0.00000  -0.16389  -0.16375   2.36834
   R14        1.81624   0.00898   0.00000   0.00154   0.00154   1.81778
   R15        2.42857  -0.04423   0.00000   0.06388   0.06403   2.49260
    A1        1.90818  -0.00778   0.00000  -0.00411  -0.00415   1.90403
    A2        1.82629   0.01019   0.00000   0.02114   0.02117   1.84746
    A3        2.28103  -0.00453   0.00000  -0.01745  -0.01727   2.26377
    A4        1.85210   0.00795   0.00000   0.00484   0.00484   1.85694
    A5        2.14809  -0.00925   0.00000  -0.00682  -0.00702   2.14107
    A6        2.20903   0.00240   0.00000   0.00607   0.00622   2.21525
    A7        1.85215  -0.00695   0.00000  -0.00591  -0.00591   1.84624
    A8        2.09592   0.00753   0.00000   0.00646   0.00646   2.10239
    A9        2.33508  -0.00059   0.00000  -0.00056  -0.00056   2.33452
   A10        1.96035  -0.00213   0.00000  -0.00041  -0.00042   1.95993
   A11        2.22820  -0.00007   0.00000  -0.00099  -0.00098   2.22722
   A12        2.09452   0.00221   0.00000   0.00141   0.00141   2.09593
   A13        1.82673   0.00922   0.00000   0.00708   0.00710   1.83383
   A14        2.85220  -0.00371   0.00000   0.00232   0.00264   2.85483
   A15        1.99408   0.01730   0.00000   0.02702   0.02711   2.02119
   A16        1.99700   0.00189   0.00000   0.00295   0.00278   1.99978
   A17        2.29150  -0.01922   0.00000  -0.02980  -0.02972   2.26178
   A18        2.16461  -0.01333   0.00000  -0.04701  -0.04724   2.11737
   A19        2.12381  -0.00980   0.00000  -0.02012  -0.02017   2.10364
   A20        1.26337   0.01507   0.00000   0.01758   0.01804   1.28141
   A21        1.74013  -0.00047   0.00000  -0.00007   0.00012   1.74025
   A22        2.92431  -0.00317   0.00000   0.01344   0.01368   2.93799
   A23        3.14370   0.00175   0.00000   0.00824   0.00815   3.15185
    D1        0.21582  -0.00124   0.00000  -0.00621  -0.00615   0.20967
    D2        2.97643   0.00263   0.00000   0.00567   0.00573   2.98216
    D3        2.72361  -0.00508   0.00000  -0.01442  -0.01414   2.70946
    D4       -0.79898  -0.00121   0.00000  -0.00254  -0.00226  -0.80124
    D5       -0.19520   0.00182   0.00000   0.00617   0.00613  -0.18907
    D6       -2.48004   0.00028   0.00000  -0.00462  -0.00480  -2.48484
    D7       -0.04302   0.00309   0.00000  -0.00116  -0.00097  -0.04399
    D8        2.26989  -0.00133   0.00000   0.00144   0.00160   2.27149
    D9       -0.14525  -0.00007   0.00000   0.00366   0.00361  -0.14164
   D10        3.00367   0.00096   0.00000   0.00462   0.00460   3.00828
   D11       -2.88844  -0.00086   0.00000  -0.00505  -0.00513  -2.89356
   D12        0.26049   0.00018   0.00000  -0.00410  -0.00413   0.25636
   D13       -2.85398  -0.00452   0.00000  -0.01135  -0.01117  -2.86515
   D14        0.32054  -0.00340   0.00000  -0.01564  -0.01536   0.30518
   D15       -0.17332   0.00053   0.00000   0.00183   0.00199  -0.17133
   D16        3.00120   0.00166   0.00000  -0.00245  -0.00220   2.99901
   D17        0.02744   0.00078   0.00000   0.00011   0.00014   0.02757
   D18       -3.09763   0.00043   0.00000  -0.00071  -0.00069  -3.09832
   D19       -3.12295  -0.00042   0.00000  -0.00100  -0.00101  -3.12396
   D20        0.03517  -0.00077   0.00000  -0.00182  -0.00184   0.03333
   D21        0.10405  -0.00105   0.00000  -0.00347  -0.00348   0.10057
   D22       -3.05266  -0.00075   0.00000  -0.00274  -0.00274  -3.05540
   D23       -0.92039  -0.00705   0.00000  -0.01092  -0.01077  -0.93116
   D24        0.66222   0.00467   0.00000   0.00603   0.00611   0.66833
   D25        0.63757  -0.00670   0.00000  -0.02435  -0.02439   0.61318
   D26       -2.46405  -0.00632   0.00000  -0.03108  -0.03078  -2.49484
   D27       -0.79979   0.00307   0.00000   0.01577   0.01549  -0.78430
   D28        1.28443  -0.00767   0.00000  -0.00516  -0.00514   1.27928
         Item               Value     Threshold  Converged?
 Maximum Force            0.061055     0.000450     NO 
 RMS     Force            0.013669     0.000300     NO 
 Maximum Displacement     0.217695     0.001800     NO 
 RMS     Displacement     0.052202     0.001200     NO 
 Predicted change in Energy=-2.274051D-02
 GradGradGradGradGradGradGradGradGradGradGradGradGradGradGradGradGradGrad

                          Input orientation:                          
 ---------------------------------------------------------------------
 Center     Atomic      Atomic             Coordinates (Angstroms)
 Number     Number       Type             X           Y           Z
 ---------------------------------------------------------------------
      1          7           0       -0.420840   -0.975159    0.424523
      2          7           0       -0.313048    0.328133   -0.091581
      3          6           0       -1.603333    0.760967   -0.330433
      4          6           0       -2.408045   -0.335918   -0.133738
      5          7           0       -1.706670   -1.423539    0.247312
      6          1           0       -1.792530    1.781646   -0.615536
      7          1           0       -3.479711   -0.399978   -0.263413
      8          1           0        0.829358   -1.622858    0.121651
      9          6           0        0.846747    1.146714    0.109313
     10          8           0        0.701676    2.351493   -0.123512
     11          8           0        1.886804    0.510714    0.472187
     12          1           0        2.334044   -1.779485   -1.279583
     13          8           0        2.117186   -1.901451   -0.350389
     14          1           0        2.125844   -0.643741    0.047002
 ---------------------------------------------------------------------
                    Distance matrix (angstroms):
                    1          2          3          4          5
     1  N    0.000000
     2  N    1.405899   0.000000
     3  C    2.232126   1.381749   0.000000
     4  C    2.160849   2.198125   1.374558   0.000000
     5  N    1.373247   2.263931   2.261976   1.349090   0.000000
     6  H    3.250113   2.139181   1.076506   2.257226   3.320405
     7  H    3.187598   3.253832   2.207505   1.081382   2.110021
     8  H    1.440222   2.270886   3.435839   3.493168   2.546951
     9  C    2.491682   1.433722   2.518942   3.584822   3.625629
    10  O    3.553449   2.263773   2.808141   4.110067   4.493162
    11  O    2.745052   2.278271   3.589970   4.419238   4.087170
    12  H    3.337709   3.586154   4.780975   5.087657   4.334221
    13  O    2.810707   3.308181   4.575055   4.793281   3.899682
    14  H    2.595758   2.629057   4.002802   4.547920   3.916169
                    6          7          8          9         10
     6  H    0.000000
     7  H    2.780298   0.000000
     8  H    4.359861   4.495752   0.000000
     9  C    2.809685   4.609709   2.769654   0.000000
    10  O    2.605355   5.007411   3.983951   1.235615   0.000000
    11  O    4.041771   5.492718   2.406906   1.271964   2.268888
    12  H    5.491013   6.060972   2.062054   3.564228   4.589783
    13  O    5.377860   5.795450   1.399619   3.334164   4.488058
    14  H    4.655654   5.619433   1.626382   2.201295   3.320957
                   11         12         13         14
    11  O    0.000000
    12  H    2.917831   0.000000
    13  O    2.558954   0.961928   0.000000
    14  H    1.253271   1.758718   1.319026   0.000000
 Stoichiometry    C3H5N3O3(1-,2)
 Framework group  C1[X(C3H5N3O3)]
 Deg. of freedom    36
 Full point group                 C1      NOp   1
 Largest Abelian subgroup         C1      NOp   1
 Largest concise Abelian subgroup C1      NOp   1
                         Standard orientation:                         
 ---------------------------------------------------------------------
 Center     Atomic      Atomic             Coordinates (Angstroms)
 Number     Number       Type             X           Y           Z
 ---------------------------------------------------------------------
      1          7           0        0.487177   -0.952452   -0.428580
      2          7           0        0.320916    0.344730    0.087394
      3          6           0        1.590758    0.839698    0.314853
      4          6           0        2.445843   -0.217255    0.112147
      5          7           0        1.794638   -1.337957   -0.262025
      6          1           0        1.732821    1.868670    0.597518
      7          1           0        3.520416   -0.229297    0.232697
      8          1           0       -0.727632   -1.659443   -0.114507
      9          6           0       -0.878756    1.106066   -0.104215
     10          8           0       -0.790108    2.316727    0.126405
     11          8           0       -1.889908    0.420112   -0.457672
     12          1           0       -2.211010   -1.886912    1.299676
     13          8           0       -1.996426   -1.999374    0.368756
     14          1           0       -2.069244   -0.744032   -0.029542
 ---------------------------------------------------------------------
 Rotational constants (GHZ):           2.1212066           1.5251500           0.9296093
 Standard basis: 6-31+G(d,p) (6D, 7F)
 There are   196 symmetry adapted cartesian basis functions of A   symmetry.
 There are   196 symmetry adapted basis functions of A   symmetry.
   196 basis functions,   323 primitive gaussians,   196 cartesian basis functions
    35 alpha electrons       34 beta electrons
       nuclear repulsion energy       454.8501355985 Hartrees.
 NAtoms=   14 NActive=   14 NUniq=   14 SFac= 1.00D+00 NAtFMM=   60 NAOKFM=F Big=F
 Integral buffers will be    131072 words long.
 Raffenetti 2 integral format.
 Two-electron integral symmetry is turned on.
 ------------------------------------------------------------------------------
 Polarizable Continuum Model (PCM)
 =================================
 Model                : PCM.
 Atomic radii         : SMD-Coulomb.
 Polarization charges : Total charges.
 Charge compensation  : None.
 Solution method      : Matrix inversion.
 Cavity type          : VdW (van der Waals Surface) (Alpha=1.000).
 Cavity algorithm     : GePol (No added spheres)
                        Default sphere list used, NSphG=   14.
                        Lebedev-Laikov grids with approx.  5.0 points / Ang**2.
                        Smoothing algorithm: York/Karplus (Gamma=1.0000).
                        Polarization charges: spherical gaussians, with
                                              point-specific exponents (IZeta= 3).
                        Self-potential: point-specific (ISelfS= 7).
                        Self-field    : sphere-specific E.n sum rule (ISelfD= 2).
 1st derivatives      : Analytical E(r).r(x)/FMM algorithm (CHGder, D1EAlg=3).
                        Cavity 1st derivative terms included.
 Solvent              : Water, Eps=  78.355300 Eps(inf)=   1.777849
 ------------------------------------------------------------------------------
 Spheres list:
 ISph  on   Nord     Re0    Alpha      Xe            Ye            Ze
    1   N      1    1.8900  1.000      0.487177     -0.952452     -0.428580
    2   N      2    1.8900  1.000      0.320916      0.344730      0.087394
    3   C      3    1.8500  1.000      1.590758      0.839698      0.314853
    4   C      4    1.8500  1.000      2.445843     -0.217255      0.112147
    5   N      5    1.8900  1.000      1.794638     -1.337957     -0.262025
    6   H      6    1.2000  1.000      1.732821      1.868670      0.597518
    7   H      7    1.2000  1.000      3.520416     -0.229297      0.232697
    8   H      8    1.2000  1.000     -0.727632     -1.659443     -0.114507
    9   C      9    1.8500  1.000     -0.878756      1.106066     -0.104215
   10   O     10    1.5200  1.000     -0.790108      2.316727      0.126405
   11   O     11    1.5200  1.000     -1.889908      0.420112     -0.457672
   12   H     12    1.2000  1.000     -2.211010     -1.886912      1.299676
   13   O     13    1.5200  1.000     -1.996426     -1.999374      0.368756
   14   H     14    1.2000  1.000     -2.069244     -0.744032     -0.029542
 ------------------------------------------------------------------------------
 ------------------------------------------------------------------------------
 Atomic radii for non-electrostatic terms: SMD-CDS.
 ------------------------------------------------------------------------------
 Nuclear repulsion after PCM non-electrostatic terms =      454.8573386383 Hartrees.
 One-electron integrals computed using PRISM.
 NBasis=   196 RedAO= T EigKep=  2.91D-05  NBF=   196
 NBsUse=   196 1.00D-06 EigRej= -1.00D+00 NBFU=   196
 Initial guess from the checkpoint file:  "/scratch/gongke2021/TS/Gau-32246.chk"
 B after Tr=    -0.000000    0.000000    0.000000
         Rot=    0.999583    0.001172   -0.003685   -0.028601 Ang=   3.31 deg.
 Initial guess <Sx>= 0.0000 <Sy>= 0.0000 <Sz>= 0.5000 <S**2>= 0.7630 S= 0.5065
 ExpMin= 4.38D-02 ExpMax= 5.48D+03 ExpMxC= 8.25D+02 IAcc=2 IRadAn=         4 AccDes= 0.00D+00
 Harris functional with IExCor= 1009 and IRadAn=       4 diagonalized for initial guess.
 HarFok:  IExCor= 1009 AccDes= 0.00D+00 IRadAn=         4 IDoV= 1 UseB2=F ITyADJ=14
 ICtDFT=  3500011 ScaDFX=  1.000000  1.000000  1.000000  1.000000
 FoFCou: FMM=F IPFlag=           0 FMFlag=      100000 FMFlg1=           0
         NFxFlg=           0 DoJE=T BraDBF=F KetDBF=T FulRan=T
         wScrn=  0.000000 ICntrl=       500 IOpCl=  0 I1Cent=   200000004 NGrid=           0
         NMat0=    1 NMatS0=      1 NMatT0=    0 NMatD0=    1 NMtDS0=    0 NMtDT0=    0
 Petite list used in FoFCou.
 Requested convergence on RMS density matrix=1.00D-08 within 128 cycles.
 Requested convergence on MAX density matrix=1.00D-06.
 Requested convergence on             energy=1.00D-06.
 No special actions if energy rises.
 Inv3:  Mode=1 IEnd=     4002075.
 Iteration    1 A*A^-1 deviation from unit magnitude is 3.00D-15 for    374.
 Iteration    1 A*A^-1 deviation from orthogonality  is 2.44D-15 for   1063     27.
 Iteration    1 A^-1*A deviation from unit magnitude is 3.44D-15 for    374.
 Iteration    1 A^-1*A deviation from orthogonality  is 3.11D-15 for   1018    701.
 Error on total polarization charges =  0.05711
 SCF Done:  E(UM062X) =  -507.130712515     A.U. after   17 cycles
            NFock= 17  Conv=0.74D-08     -V/T= 2.0091
 <Sx>= 0.0000 <Sy>= 0.0000 <Sz>= 0.5000 <S**2>= 0.7637 S= 0.5068
 <L.S>=  0.00000000000    
 SMD-CDS (non-electrostatic) energy       (kcal/mol) =       4.52
 (included in total energy above)
 Annihilation of the first spin contaminant:
 S**2 before annihilation     0.7637,   after     0.7501
 D1PCM: PCM CHGder 1st derivatives, ID1Alg=3 FixD1E=F DoIter=F DoCFld=F I1PDM=0.
 Calling FoFJK, ICntrl=      2127 FMM=F ISym2X=0 I1Cent= 0 IOpClX= 1 NMat=1 NMatS=1 NMatT=0.
 ***** Axes restored to original set *****
 -------------------------------------------------------------------
 Center     Atomic                   Forces (Hartrees/Bohr)
 Number     Number              X              Y              Z
 -------------------------------------------------------------------
      1        7           0.058114299   -0.025764263   -0.009249610
      2        7           0.012219499    0.006110602    0.012690996
      3        6          -0.006652356    0.004634070   -0.002712690
      4        6          -0.002539026    0.004300824   -0.004160755
      5        7           0.014203205    0.004119814    0.002103871
      6        1          -0.003179715   -0.000308133   -0.001569180
      7        1           0.000090083    0.000857311   -0.000392395
      8        1          -0.027085681    0.003713298   -0.014728849
      9        6          -0.055183045   -0.019358471   -0.017489849
     10        8           0.011467821    0.007614985    0.003888362
     11        8           0.036584860   -0.021669730    0.000750641
     12        1          -0.007555953   -0.001778387   -0.008998229
     13        8          -0.024813489    0.045492379    0.039584349
     14        1          -0.005670502   -0.007964300    0.000283340
 -------------------------------------------------------------------
 Cartesian Forces:  Max     0.058114299 RMS     0.019529489

 GradGradGradGradGradGradGradGradGradGradGradGradGradGradGradGradGradGrad
 Berny optimization.
 FormGI is forming the generalized inverse of G from B-inverse, IUseBI=4.
 Internal  Forces:  Max     0.056171427 RMS     0.011537068
 Search for a saddle point.
 Step number   2 out of a maximum of   76
 All quantities printed in internal units (Hartrees-Bohrs-Radians)
 Swapping is turned off.
 Update second derivatives using D2CorX and points    1    2
 ITU=  0  0
     Eigenvalues ---   -0.08778  -0.03944   0.00037   0.00254   0.00501
     Eigenvalues ---    0.00734   0.00856   0.01736   0.02047   0.02324
     Eigenvalues ---    0.02530   0.03479   0.04122   0.04843   0.05488
     Eigenvalues ---    0.06017   0.06970   0.09811   0.10528   0.11120
     Eigenvalues ---    0.12011   0.15773   0.19887   0.21820   0.24145
     Eigenvalues ---    0.27461   0.30020   0.35430   0.38022   0.39203
     Eigenvalues ---    0.40613   0.45424   0.51696   0.56196   0.58044
     Eigenvalues ---    0.77995
 Eigenvectors required to have negative eigenvalues:
                          R10       R3        R15       R13       A19
   1                   -0.62438   0.53724   0.37513  -0.37312  -0.09344
                          A3        D28       R5        A17       R12
   1                    0.06892  -0.06195  -0.05387  -0.05272   0.04598
 RFO step:  Lambda0=2.495810362D-04 Lambda=-6.39850584D-02.
 Linear search not attempted -- option 19 set.
 Maximum step size (   0.300) exceeded in Quadratic search.
    -- Step size scaled by   0.293
 Iteration  1 RMS(Cart)=  0.04830134 RMS(Int)=  0.00187629
 Iteration  2 RMS(Cart)=  0.00206332 RMS(Int)=  0.00014293
 Iteration  3 RMS(Cart)=  0.00000267 RMS(Int)=  0.00014287
 Iteration  4 RMS(Cart)=  0.00000000 RMS(Int)=  0.00014287
 Variable       Old X    -DE/DX   Delta X   Delta X   Delta X     New X
                                 (Linear)    (Quad)   (Total)
    R1        2.65676  -0.00095   0.00000   0.00105   0.00102   2.65778
    R2        2.59506  -0.00927   0.00000  -0.01070  -0.01070   2.58436
    R3        2.72163  -0.05617   0.00000  -0.21330  -0.21333   2.50830
    R4        2.61113   0.00872   0.00000   0.00531   0.00531   2.61644
    R5        2.70934  -0.02239   0.00000  -0.03937  -0.03951   2.66983
    R6        2.59754  -0.00486   0.00000  -0.00105  -0.00107   2.59647
    R7        2.03430   0.00069   0.00000   0.00024   0.00024   2.03454
    R8        2.54941   0.00605   0.00000   0.00047   0.00046   2.54987
    R9        2.04351  -0.00009   0.00000  -0.00053  -0.00053   2.04299
   R10        2.64490  -0.03459   0.00000  -0.04147  -0.04149   2.60341
   R11        2.33497   0.00534   0.00000  -0.00066  -0.00066   2.33432
   R12        2.40366   0.02362   0.00000   0.02602   0.02598   2.42964
   R13        2.36834  -0.02511   0.00000  -0.16470  -0.16456   2.20378
   R14        1.81778   0.00672   0.00000   0.00065   0.00065   1.81843
   R15        2.49260  -0.03063   0.00000   0.08703   0.08719   2.57978
    A1        1.90403  -0.00593   0.00000  -0.00278  -0.00282   1.90121
    A2        1.84746   0.00871   0.00000   0.02135   0.02140   1.86886
    A3        2.26377  -0.00420   0.00000  -0.01878  -0.01861   2.24516
    A4        1.85694   0.00599   0.00000   0.00353   0.00352   1.86045
    A5        2.14107  -0.00706   0.00000  -0.00357  -0.00379   2.13728
    A6        2.21525   0.00218   0.00000   0.00522   0.00535   2.22060
    A7        1.84624  -0.00537   0.00000  -0.00470  -0.00470   1.84154
    A8        2.10239   0.00598   0.00000   0.00598   0.00598   2.10837
    A9        2.33452  -0.00062   0.00000  -0.00130  -0.00130   2.33322
   A10        1.95993  -0.00164   0.00000  -0.00046  -0.00047   1.95946
   A11        2.22722  -0.00014   0.00000  -0.00125  -0.00124   2.22597
   A12        2.09593   0.00179   0.00000   0.00172   0.00172   2.09765
   A13        1.83383   0.00729   0.00000   0.00618   0.00620   1.84003
   A14        2.85483  -0.00288   0.00000   0.00039   0.00071   2.85555
   A15        2.02119   0.01440   0.00000   0.02512   0.02520   2.04639
   A16        1.99978   0.00165   0.00000   0.00353   0.00336   2.00314
   A17        2.26178  -0.01606   0.00000  -0.02848  -0.02841   2.23337
   A18        2.11737  -0.01281   0.00000  -0.04810  -0.04831   2.06906
   A19        2.10364  -0.00875   0.00000  -0.01933  -0.01936   2.08427
   A20        1.28141   0.01335   0.00000   0.01634   0.01677   1.29818
   A21        1.74025   0.00029   0.00000   0.00286   0.00304   1.74329
   A22        2.93799  -0.00211   0.00000   0.01604   0.01626   2.95425
   A23        3.15185   0.00134   0.00000   0.00574   0.00563   3.15748
    D1        0.20967  -0.00142   0.00000  -0.00762  -0.00756   0.20211
    D2        2.98216   0.00230   0.00000   0.00685   0.00690   2.98906
    D3        2.70946  -0.00457   0.00000  -0.01631  -0.01602   2.69344
    D4       -0.80124  -0.00085   0.00000  -0.00185  -0.00155  -0.80279
    D5       -0.18907   0.00183   0.00000   0.00743   0.00740  -0.18167
    D6       -2.48484  -0.00014   0.00000  -0.00388  -0.00406  -2.48889
    D7       -0.04399   0.00224   0.00000  -0.00032  -0.00013  -0.04411
    D8        2.27149  -0.00078   0.00000   0.00293   0.00308   2.27457
    D9       -0.14164   0.00024   0.00000   0.00463   0.00457  -0.13707
   D10        3.00828   0.00116   0.00000   0.00656   0.00654   3.01482
   D11       -2.89356  -0.00117   0.00000  -0.00817  -0.00824  -2.90180
   D12        0.25636  -0.00025   0.00000  -0.00625  -0.00627   0.25009
   D13       -2.86515  -0.00401   0.00000  -0.01063  -0.01045  -2.87560
   D14        0.30518  -0.00333   0.00000  -0.01545  -0.01516   0.29002
   D15       -0.17133   0.00066   0.00000   0.00595   0.00611  -0.16522
   D16        2.99901   0.00135   0.00000   0.00113   0.00140   3.00041
   D17        0.02757   0.00061   0.00000   0.00003   0.00006   0.02763
   D18       -3.09832   0.00031   0.00000  -0.00038  -0.00036  -3.09868
   D19       -3.12396  -0.00045   0.00000  -0.00222  -0.00223  -3.12619
   D20        0.03333  -0.00074   0.00000  -0.00263  -0.00265   0.03068
   D21        0.10057  -0.00110   0.00000  -0.00432  -0.00433   0.09624
   D22       -3.05540  -0.00084   0.00000  -0.00397  -0.00397  -3.05937
   D23       -0.93116  -0.00649   0.00000  -0.01328  -0.01313  -0.94429
   D24        0.66833   0.00408   0.00000   0.00506   0.00513   0.67346
   D25        0.61318  -0.00652   0.00000  -0.02505  -0.02510   0.58808
   D26       -2.49484  -0.00639   0.00000  -0.03188  -0.03158  -2.52641
   D27       -0.78430   0.00308   0.00000   0.01549   0.01517  -0.76913
   D28        1.27928  -0.00624   0.00000  -0.00419  -0.00419   1.27509
         Item               Value     Threshold  Converged?
 Maximum Force            0.056171     0.000450     NO 
 RMS     Force            0.011537     0.000300     NO 
 Maximum Displacement     0.207315     0.001800     NO 
 RMS     Displacement     0.050045     0.001200     NO 
 Predicted change in Energy=-1.930636D-02
 GradGradGradGradGradGradGradGradGradGradGradGradGradGradGradGradGradGrad

                          Input orientation:                          
 ---------------------------------------------------------------------
 Center     Atomic      Atomic             Coordinates (Angstroms)
 Number     Number       Type             X           Y           Z
 ---------------------------------------------------------------------
      1          7           0       -0.375950   -0.982558    0.414020
      2          7           0       -0.284406    0.326753   -0.091347
      3          6           0       -1.580688    0.748808   -0.333276
      4          6           0       -2.369743   -0.359695   -0.142317
      5          7           0       -1.653072   -1.438367    0.236565
      6          1           0       -1.785027    1.767077   -0.617029
      7          1           0       -3.439916   -0.437195   -0.274626
      8          1           0        0.768485   -1.591402    0.128724
      9          6           0        0.855838    1.137424    0.105376
     10          8           0        0.735265    2.346577   -0.116651
     11          8           0        1.911411    0.502268    0.473341
     12          1           0        2.224337   -1.763685   -1.277379
     13          8           0        2.030814   -1.879486   -0.341908
     14          1           0        2.080134   -0.578980    0.070308
 ---------------------------------------------------------------------
                    Distance matrix (angstroms):
                    1          2          3          4          5
     1  N    0.000000
     2  N    1.406439   0.000000
     3  C    2.237738   1.384560   0.000000
     4  C    2.161638   2.196006   1.373991   0.000000
     5  N    1.367586   2.257526   2.261348   1.349334   0.000000
     6  H    3.257154   2.145399   1.076635   2.256192   3.319775
     7  H    3.187403   3.251839   2.206076   1.081103   2.111036
     8  H    1.327334   2.199165   3.347930   3.382165   2.428783
     9  C    2.471212   1.412814   2.506012   3.564701   3.598130
    10  O    3.549585   2.262755   2.821955   4.118937   4.489401
    11  O    2.727682   2.274046   3.592515   4.410248   4.065423
    12  H    3.198825   3.474247   4.656411   4.936105   4.175184
    13  O    2.677391   3.207883   4.466649   4.659883   3.755028
    14  H    2.512641   2.537229   3.915037   4.460348   3.834451
                    6          7          8          9         10
     6  H    0.000000
     7  H    2.777538   0.000000
     8  H    4.284384   4.382411   0.000000
     9  C    2.809359   4.591006   2.730324   0.000000
    10  O    2.634021   5.020606   3.945756   1.235267   0.000000
    11  O    4.056143   5.484409   2.410082   1.285712   2.265587
[...]
 ! D1    D(5,1,2,3)              5.1963         -DE/DX =    0.0                 !
 ! D2    D(5,1,2,9)           -177.4857         -DE/DX =    0.0                 !
 ! D3    D(8,1,2,3)            149.2113         -DE/DX =    0.0                 !
 ! D4    D(8,1,2,9)            -33.4706         -DE/DX =    0.0                 !
 ! D5    D(2,1,5,4)             -4.7306         -DE/DX =    0.0                 !
 ! D6    D(8,1,5,4)           -143.0224         -DE/DX =    0.0                 !
 ! D7    D(2,1,8,13)            33.3202         -DE/DX =    0.0                 !
 ! D8    D(5,1,8,13)           169.8212         -DE/DX =    0.0                 !
 ! D9    D(1,2,3,4)             -3.5009         -DE/DX =    0.0                 !
 ! D10   D(1,2,3,6)            178.0318         -DE/DX =    0.0                 !
 ! D11   D(9,2,3,4)            179.287          -DE/DX =    0.0                 !
 ! D12   D(9,2,3,6)              0.8197         -DE/DX =    0.0                 !
 ! D13   D(1,2,9,10)          -172.6269         -DE/DX =    0.0                 !
 ! D14   D(1,2,9,11)             6.5278         -DE/DX =    0.0                 !
 ! D15   D(3,2,9,10)             4.154          -DE/DX =    0.0                 !
 ! D16   D(3,2,9,11)          -176.6914         -DE/DX =    0.0                 !
 ! D17   D(2,3,4,5)              0.6233         -DE/DX =    0.0                 !
 ! D18   D(2,3,4,7)           -178.9273         -DE/DX =    0.0                 !
 ! D19   D(6,3,4,5)            178.8424         -DE/DX =    0.0                 !
 ! D20   D(6,3,4,7)             -0.7082         -DE/DX =    0.0                 !
 ! D21   D(3,4,5,1)              2.5963         -DE/DX =    0.0                 !
 ! D22   D(7,4,5,1)           -177.8191         -DE/DX =    0.0                 !
 ! D23   D(1,8,13,12)         -115.4842         -DE/DX =    0.0                 !
 ! D24   D(1,8,13,14)           -6.759          -DE/DX =    0.0                 !
 ! D25   D(2,9,11,14)           22.968          -DE/DX =    0.0                 !
 ! D26   D(10,9,11,14)        -157.9063         -DE/DX =    0.0                 !
 ! D27   D(9,11,13,8)          -24.0804         -DE/DX =    0.0                 !
 ! D28   D(9,11,13,12)          83.1762         -DE/DX =    0.0                 !
 --------------------------------------------------------------------------------
 GradGradGradGradGradGradGradGradGradGradGradGradGradGradGradGradGradGrad


 ----------------------------------------------------------------------

 Electric dipole moment (input orientation):
 (Debye = 10**-18 statcoulomb cm , SI units = C m)
                  (au)            (Debye)         (10**-30 SI)
   Tot        0.212335D+01      0.539702D+01      0.180025D+02
   x         -0.153412D+01     -0.389934D+01     -0.130068D+02
   y         -0.637924D+00     -0.162144D+01     -0.540854D+01
   z         -0.132218D+01     -0.336064D+01     -0.112099D+02

 Dipole polarizability, Alpha (input orientation).
 (esu units = cm**3 , SI units = C**2 m**2 J**-1)
 Alpha(0;0):
               (au)            (10**-24 esu)      (10**-40 SI)
   iso        0.120376D+03      0.178380D+02      0.198474D+02
   aniso      0.787992D+02      0.116768D+02      0.129922D+02
   xx         0.142461D+03      0.211105D+02      0.234886D+02
   yx         0.148293D+02      0.219748D+01      0.244503D+01
   yy         0.146969D+03      0.217785D+02      0.242319D+02
   zx         0.560135D+01      0.830035D+00      0.923538D+00
   zy        -0.602958D+01     -0.893492D+00     -0.994143D+00
   zz         0.717000D+02      0.106248D+02      0.118217D+02

 ----------------------------------------------------------------------

 Dipole orientation:
     7         -0.59562736          1.89415743          0.58853755
     7         -0.49579414         -0.71640357          0.13638258
     6         -1.88257838         -1.91902757          2.02540286
     6         -2.62818332         -0.00845541          3.61293821
     7         -1.81424970          2.26979752          2.80795198
     1         -2.13909609         -3.93719112          2.05912695
     1         -3.72001264         -0.17862556          5.33049083
     1          1.34702056          3.04479904         -0.13819350
     6          0.68356170         -1.80979127         -1.89571163
     8          0.44898113         -4.12223002         -2.27375005
     8          2.00598401         -0.32420259         -3.39382163
     1          4.71642839          3.40473297         -0.38094840
     8          3.20783212          3.60301495         -1.39241759
     1          2.70269133          1.50414642         -2.55235961

 Electric dipole moment (dipole orientation):
 (Debye = 10**-18 statcoulomb cm , SI units = C m)
                  (au)            (Debye)         (10**-30 SI)
   Tot        0.212335D+01      0.539702D+01      0.180025D+02
   x          0.000000D+00      0.000000D+00      0.000000D+00
   y          0.000000D+00      0.000000D+00      0.000000D+00
   z          0.212335D+01      0.539702D+01      0.180025D+02

 Dipole polarizability, Alpha (dipole orientation).
 (esu units = cm**3 , SI units = C**2 m**2 J**-1)
 Alpha(0;0):
               (au)            (10**-24 esu)      (10**-40 SI)
   iso        0.120376D+03      0.178380D+02      0.198474D+02
   aniso      0.787992D+02      0.116768D+02      0.129922D+02
   xx         0.962572D+02      0.142639D+02      0.158707D+02
   yx         0.289266D+01      0.428649D+00      0.476936D+00
   yy         0.140219D+03      0.207783D+02      0.231190D+02
   zx        -0.344951D+02     -0.511165D+01     -0.568748D+01
   zy         0.193549D+02      0.286810D+01      0.319120D+01
   zz         0.124653D+03      0.184717D+02      0.205525D+02

 ----------------------------------------------------------------------
 1\1\GINC-NODE4\Freq\UM062X\6-31+G(d,p)\C3H5N3O3(1-,2)\GONGKE2021\11-Ju
 l-2023\0\\#N Geom=AllCheck Guess=TCheck SCRF=Check GenChk UM062X/6-31+
 G(d,p) Freq\\test\\-1,2\N,-0.3047319561,-0.9979952307,0.3349341711\N,-
 0.2808178361,0.3714304567,0.0307221417\C,-1.585956007,0.7702780474,-0.
 2527159671\C,-2.3253065169,-0.3841266838,-0.1870112555\N,-1.5641087666
 ,-1.4523034851,0.1292502247\H,-1.8337845788,1.791636428,-0.4866059033\
 H,-3.3859308853,-0.494858632,-0.3625774181\H,0.7518730962,-1.594995951
 9,0.014598449\C,0.8420393646,1.1574265969,0.0755858795\O,0.7386834062,
 2.389756789,-0.0777957989\O,1.9946485502,0.5595777887,0.2998088572\H,2
 .0795964612,-1.9747856547,-1.1364138181\O,1.9388439419,-1.8062815546,-
 0.1948195086\H,2.0524348163,-0.537220714,0.0468411963\\Version=ES64L-G
 16RevA.03\State=2-A\HF=-507.1687455\S2=0.765112\S2-1=0.\S2A=0.750092\R
 MSD=3.234e-09\RMSF=2.063e-05\ZeroPoint=0.0894962\Thermal=0.097355\Dipo
 le=-1.5341181,-0.6379237,-1.3221764\DipoleDeriv=-0.8376163,1.462477,-0
 .1590649,0.3686474,-0.257544,-0.064941,0.2053453,0.3139889,-0.4417996,
 -1.2569265,-0.9249774,0.019616,-0.6547085,-0.6315289,-0.0617745,-0.093
 683,-0.1466944,0.0174567,-0.1931273,-0.1653341,0.0225852,0.0811488,-0.
 5822247,0.035627,0.0343418,-0.0295619,-0.3639187,0.206391,-0.0445125,0
 .0811021,0.3851382,1.1067271,-0.0989795,-0.0373928,-0.1943635,-0.06512
 83,-0.3816111,-0.4486272,0.1659108,-0.2663929,-1.3810104,0.0865622,0.0
 630731,-0.0694159,-0.3134899,0.1201344,-0.0197245,-0.028068,0.0059395,
 0.1349015,0.0354454,-0.0420131,0.0455573,0.3109594,-0.0130595,-0.01110
 33,-0.0368041,-0.0214166,0.1606601,0.0021986,-0.0390762,0.0114952,0.20
 67871,2.0926666,-1.1923399,-0.2489425,-0.6850297,0.773283,0.0551625,-0
 .3920749,0.1416934,0.4367517,3.4066698,0.4434054,0.2302503,0.8465541,3
 .8232589,-0.2597677,0.3112734,-0.3024717,0.62684,-0.9426789,0.1165997,
 -0.0284047,-0.9639731,-3.0007716,0.134856,0.1071813,0.2980893,-0.71194
 13,-2.1666874,0.2227582,-0.1173064,0.9493464,-1.7091523,-0.031855,-0.3
 175613,-0.1626683,-0.6926575,0.4079123,-0.0013744,-0.0217814,-0.006048
 3,0.4213554,0.0101544,-0.0169036,0.0096191,0.2856982,-1.8754617,0.6634
 013,0.1302596,0.4372506,-1.7704375,-0.164935,0.265265,-0.2895568,-0.77
 38732,0.4333946,-0.1006486,-0.0093519,-0.4764559,1.9124836,0.3222466,-
 0.047775,0.3742894,0.4783154\Polar=142.4608768,14.8293466,146.9686354,
 5.6013534,-6.0295798,71.699965\Quadrupole=1.6945073,-10.6479195,8.9534
 122,-7.4839552,-2.2307079,3.5071401\PG=C01 [X(C3H5N3O3)]\NImag=1\\0.60
 659880,-0.04271729,0.41401377,0.04295593,-0.03377790,0.09170397,-0.107
 72850,0.05624785,-0.01063917,0.80261331,0.01020555,-0.18923206,0.02790
 715,0.10325530,0.61548830,-0.00584911,0.04559587,-0.03680985,0.0975701
 6,-0.07893230,0.09909295,-0.01716936,0.03673638,-0.01347287,-0.2536168
 1,0.05051120,-0.04297073,0.54166256,0.02974583,-0.04168948,0.01074301,
 0.04269594,-0.12538084,0.02352724,0.00620645,0.87466453,-0.00694080,0.
 01440845,-0.00656628,-0.04258234,0.02611701,-0.04576112,0.07797942,-0.
 14315159,0.11923205,-0.09377413,0.01369367,-0.01775896,-0.06630856,-0.
 00920518,-0.01280947,-0.20138487,-0.15160604,0.00022577,0.88168409,0.0
 0882795,-0.00311178,0.00371553,-0.05010699,0.00200567,-0.00637477,-0.1
 1582985,-0.26805437,0.01911964,0.08447512,0.55739547,-0.02354844,0.007
 72157,0.00670535,-0.00371878,-0.00092890,0.00968784,-0.00576941,0.0114
 6099,-0.06092925,0.12305904,-0.06158092,0.16283680,-0.27249588,-0.0908
 8734,-0.02557607,-0.05547290,-0.06156541,0.00083819,0.03208771,0.03492
 233,-0.00671625,-0.17611288,0.11657403,-0.04226379,0.48380830,0.004927
 21,-0.11256629,0.00604044,-0.04400333,-0.05424564,-0.00038370,-0.02759
 676,-0.11748700,0.01670438,0.09233127,-0.20762670,0.04186113,-0.025040
 53,0.47306306,-0.05150820,-0.01937219,-0.04860595,-0.00272802,0.002077
 46,-0.00008261,0.00652009,0.02842095,0.02423862,-0.03761435,0.04795684
 ,-0.07509704,0.08535478,-0.06923270,0.10280822,-0.00552361,0.00032755,
 -0.00045922,-0.00322522,0.02934848,-0.00580308,-0.06869827,0.06175693,
 -0.02077181,0.01261976,-0.01189178,0.00474218,-0.00156175,-0.00605675,
 -0.00040640,0.06524331,-0.00241994,0.00011213,-0.00027428,-0.00095337,
 0.00049883,-0.00096640,0.07228257,-0.34810361,0.07474382,0.00850300,-0
 .00713944,0.00267282,-0.00027054,-0.00010090,0.00129261,-0.07518539,0.
 35615986,-0.00202882,0.00018786,0.00300885,-0.00009377,0.00398540,-0.0
 0527681,-0.02239398,0.07396368,-0.03189176,0.00075416,-0.00180193,-0.0
 0054195,-0.00050179,0.00071338,0.00580158,0.02290105,-0.07693753,0.031
 28410,-0.00000152,0.00197408,-0.00098738,-0.00011950,-0.00059789,-0.00
 115755,-0.00415554,0.00313087,-0.00160210,-0.35256999,-0.03646875,-0.0
 5220006,-0.01180740,-0.00232978,-0.00105860,-0.00024695,-0.00013174,0.
 00045154,0.36851618,0.00469953,-0.00413272,0.00193451,-0.00351560,-0.0
 0584611,0.00143945,-0.02084206,0.00769748,-0.00463471,-0.04203481,-0.0
 6547023,-0.00273008,0.02703591,0.00963702,0.00303045,0.00087988,-0.000
 06369,-0.00026196,0.03458761,0.05639216,-0.00233428,0.00306393,0.00728
 082,-0.00050370,0.00140839,0.00599053,0.00239087,-0.00048950,0.0020429
 3,-0.05124599,-0.00178715,-0.04373443,-0.00564408,-0.00214823,-0.00603
 900,0.00024082,-0.00047716,-0.00230419,0.05709322,0.00097616,0.0358915
 8,-0.01251134,-0.00423559,-0.00001420,0.00770511,-0.00041709,-0.008486
 55,0.00371436,-0.00904914,0.00247364,0.00461249,-0.00051802,0.00370774
 ,-0.01092730,-0.01171943,-0.00585142,0.00114213,0.00020862,0.00068668,
 0.00086639,-0.00053906,0.00084566,-0.00804837,-0.00474563,-0.05607460,
 -0.00161624,0.01566716,-0.01354063,-0.00189912,-0.00291777,0.00097618,
 -0.00098179,-0.00535034,-0.00236046,-0.00121581,-0.00619143,0.01698214
 ,0.00608906,0.00030950,-0.00004832,-0.00023452,-0.00054110,0.00086078,
 -0.00100655,0.04334405,0.08378454,0.01819802,-0.01561768,-0.02183154,-
 0.01125230,0.00669106,-0.00094674,0.00143837,0.00378573,-0.00060258,-0
 .00416588,-0.00155376,0.00042636,-0.00846910,0.00960427,-0.00310330,-0
 .00084638,0.00020095,0.00009544,-0.00064847,0.00083002,0.00002445,0.01
 905768,-0.00290577,0.06107040,-0.01436709,-0.01131877,0.00025124,-0.24
 410394,-0.08632634,-0.01354717,-0.03048991,-0.01445582,-0.00225315,-0.
 00225280,0.00115709,-0.00050601,0.02079020,0.01857642,0.00268938,0.001
 55718,0.00019229,0.00024365,0.00073407,-0.00007661,-0.00009102,0.02576
 404,-0.00474506,-0.00395153,0.61711200,-0.04984442,-0.01166531,-0.0110
 9830,-0.06913297,-0.16936282,0.01558749,0.00095525,0.01805834,-0.00471
 331,0.00858781,-0.00987277,0.00318179,0.01631790,0.00871987,0.00416960
 ,0.00186360,-0.00184234,0.00068128,0.00091193,0.00152818,0.00020491,0.
 01358163,-0.00944450,-0.00153371,-0.03754211,0.82732617,0.00565790,0.0
 0430419,-0.00241629,-0.02251770,0.00575496,-0.05199861,-0.00205378,-0.
 00682142,-0.00175128,-0.00227222,0.00085112,0.00010834,0.00201548,0.00
 180887,-0.00204671,0.00008379,0.00017819,-0.00034459,-0.00020969,-0.00
 009918,0.00124764,0.00355588,-0.00078559,0.00055988,0.06080441,-0.0765
 1438,0.19994867,-0.00494329,0.00521160,-0.00478674,0.00013923,-0.05178
 076,0.00574123,0.00471893,0.00065983,0.00126596,0.00139856,-0.00384885
 ,0.00075292,-0.00156472,-0.00215605,0.00034613,-0.00013877,-0.00218210
 ,0.00036242,-0.00011658,-0.00020363,0.00002668,-0.00326343,0.00014838,
 0.00110382,-0.09406582,0.02838379,-0.00669338,0.10831357,0.01611083,-0
 .00846692,0.00898462,-0.02995113,-0.07451251,0.00236022,-0.00597606,0.
 00224851,-0.00039345,0.00073508,0.00717579,-0.00143199,-0.01609270,-0.
 01523334,-0.00259324,-0.00129990,0.00018286,-0.00022036,-0.00071580,0.
 00000249,-0.00016414,-0.01364009,0.00602927,0.00102130,0.03885852,-0.5
 0341151,0.05494872,-0.04136181,0.64408255,-0.00311622,0.00218649,0.001
 81051,0.00355977,0.00404762,0.01665318,0.00109388,0.00002852,-0.002896
 75,0.00034950,-0.00155793,0.00002268,0.00121284,0.00215218,0.00215393,
 0.00014911,-0.00034154,0.00037471,0.00006161,-0.00003497,0.00003228,0.
 00084418,-0.00037045,-0.00008913,-0.00912784,0.05229772,-0.07621249,0.
 01306708,-0.07512569,0.04130908,0.01923573,-0.00138104,0.00475597,-0.0
 7765957,0.01681872,-0.01806621,-0.00375479,-0.00955029,0.00061777,-0.0
 0378830,0.00864131,-0.00206057,-0.00861533,-0.00998229,-0.00166341,-0.
 00065856,0.00001897,-0.00009523,-0.00055686,-0.00070287,0.00018372,-0.
 01465047,0.00477515,0.00187362,-0.26045030,0.06846813,-0.03991859,-0.0
 1140906,0.04604799,-0.00700406,0.38464019,-0.01519112,0.00973262,-0.00
 408108,-0.01009027,0.00967364,0.00146278,0.00620637,-0.00030769,0.0016
 3110,-0.00173432,-0.00519350,0.00061046,0.00616945,0.00770021,0.001294
 90,0.00001655,0.00032161,-0.00016390,0.00007657,-0.00013368,-0.0000293
 8,0.02337196,-0.00429866,-0.00416499,0.06724386,-0.13833465,0.00914056
 ,0.07230154,-0.06364059,0.01936013,-0.11125175,0.35880011,0.00361312,-
 0.00221183,0.00018087,-0.00839413,0.00312806,0.00944170,-0.00298849,0.
 00052537,0.00481022,0.00004452,0.00226983,0.00036705,-0.00259690,-0.00
 255446,0.00014119,-0.00007084,-0.00005761,-0.00026360,0.00004591,-0.00
 008879,-0.00065772,0.00162053,-0.00013118,-0.00144118,-0.04126539,0.01
 067837,-0.06515975,-0.00685217,0.01051638,0.01494259,0.06734191,0.0175
 4957,0.06038632,-0.00555419,0.00119621,-0.00077017,-0.00054318,0.00037
 427,0.00001832,0.00006979,0.00030211,-0.00008662,-0.00038644,-0.000232
 31,-0.00002417,-0.00070354,0.00105077,-0.00010946,-0.00004972,0.000016
 30,-0.00000683,-0.00005324,0.00008410,-0.00004149,0.00710585,0.0008696
 3,0.01936558,-0.00104009,-0.00012109,0.00009495,0.00027202,0.00000539,
 0.00002064,0.00115412,-0.00250632,0.00006605,0.03183443,0.00028900,0.0
 0118774,-0.00002061,0.00015317,-0.00007140,-0.00009556,-0.00003867,0.0
 0009267,-0.00001297,0.00004740,0.00007891,-0.00002167,0.00031780,-0.00
 013378,0.00008950,-0.00001741,-0.00000561,-0.00000832,0.00000104,-0.00
 001182,-0.00000250,0.00090759,-0.00237079,-0.00158004,-0.00127356,-0.0
 0036265,-0.00019151,0.00045834,-0.00032718,0.00006346,0.00044735,-0.00
 611062,0.00132660,-0.01274252,0.03278006,-0.00199317,0.00090421,0.0010
 4826,0.00019544,-0.00033324,-0.00006233,-0.00016431,0.00007871,-0.0000
 2436,-0.00009765,0.00008362,-0.00008084,0.00006768,0.00007109,0.000018
 29,-0.00001625,-0.00001139,-0.00001333,-0.00002546,0.00000553,-0.00003
 048,0.00248769,-0.00093039,-0.00295935,0.00069307,-0.00088467,0.000183
 58,-0.00017831,0.00052851,-0.00015798,-0.00022841,0.00323321,0.0009351
 8,-0.07816916,0.09408076,0.50927628,-0.08992533,0.03611855,0.02502560,
 -0.00090327,-0.00287494,0.00462992,-0.00250274,0.00503960,-0.00124367,
 -0.00465109,-0.00111003,-0.00223007,0.00247574,0.01314509,0.00626543,-
 0.00055104,-0.00011101,-0.00033639,-0.00059406,0.00064007,-0.00100080,
 0.01025554,-0.02685481,-0.03113365,-0.01506576,-0.01080881,-0.00364233
 ,0.00217751,0.00789789,-0.00035307,0.02129171,-0.01245852,-0.00041388,
 -0.03148902,0.00842258,0.07764955,0.13427895,0.02259300,0.00581782,-0.
 00664415,0.00231793,0.00227425,0.00194094,0.00157194,0.00049801,0.0002
 2508,0.00178999,-0.00058523,0.00056515,0.00290717,-0.00247626,-0.00167
 048,0.00006842,0.00008532,0.00006357,0.00021543,-0.00013604,0.00031315
 ,-0.00002449,-0.02425814,-0.00197403,-0.03326423,0.00958734,-0.0089337
 2,0.00815508,-0.01100262,0.00395685,0.02477572,-0.10885476,-0.02611311
 ,0.00824693,-0.03027141,-0.09389182,-0.03296987,0.13009777,0.02337519,
 -0.00651639,0.00514851,0.00351998,-0.00144217,-0.00015147,0.00019806,-
 0.00126099,0.00030834,0.00169926,0.00057686,0.00016330,0.00264664,-0.0
 0401548,0.00034045,0.00025328,-0.00001116,0.00003940,0.00027498,-0.000
 30206,0.00014720,-0.01301106,0.00371097,-0.03654496,-0.00588151,0.0016
 9475,-0.00124835,0.00214398,-0.00390344,0.00064651,0.00486383,-0.02948
 057,0.00597578,0.06250620,-0.07850351,-0.50529000,-0.08430218,0.102856
 40,0.55937296,-0.00184031,-0.00096586,0.00147604,-0.00077622,0.0022540
 9,-0.00010797,-0.00048104,0.00020140,-0.00036581,0.00091416,0.00033109
 ,0.00005943,0.00009975,-0.00114582,-0.00023595,0.00009149,0.00003235,0
 .00005733,0.00010499,-0.00001245,0.00008039,-0.01176500,-0.01376772,-0
 .00056977,-0.00412180,0.02837937,0.00509530,-0.00151816,-0.00061821,-0
 .00075740,-0.04477852,-0.02215400,-0.01015023,-0.00061680,0.00302789,-
 0.00022071,-0.02479715,-0.00638304,0.00171335,0.08948462,0.01751951,-0
 .00392493,-0.00181270,-0.01258369,0.00225131,-0.00326215,-0.00126900,-
 0.00321273,0.00093833,-0.00023266,0.00275865,-0.00016454,-0.00419663,-
 0.00623239,-0.00155276,-0.00011969,-0.00005671,0.00003336,-0.00011248,
 -0.00032382,0.00013807,-0.04127094,0.00376320,0.00719664,0.06297431,-0
 .02092335,0.01635919,-0.01378534,0.01687318,-0.00666239,-0.03712509,-0
 .05935403,-0.01483720,0.00345655,0.00552590,-0.00293413,0.01592422,0.0
 2922396,0.01659677,0.01082091,0.03363174,0.00351888,-0.00087659,-0.000
 65722,-0.00241543,0.00051950,0.00022335,0.00019288,-0.00081069,-0.0002
 0876,-0.00016773,0.00008303,0.00006578,-0.00036762,-0.00062119,-0.0005
 2767,0.00000375,-0.00001131,0.00003215,-0.00003794,-0.00006437,0.00010
 838,-0.00791643,0.00227736,0.00534226,0.01194187,0.00624847,-0.0008700
 6,-0.00629962,0.00547257,0.00141088,-0.01060035,-0.01636279,-0.0296586
 4,-0.00286383,-0.01512364,-0.00284292,0.01108554,0.02930616,-0.0289076
 7,0.00392603,-0.01003650,0.05649012\\-0.00003120,0.00000272,0.00000040
 ,-0.00001509,-0.00000657,-0.00000372,-0.00000818,-0.00001243,-0.000015
 06,0.00000417,-0.00000961,-0.00002378,0.00000438,0.00000062,-0.0000001
 9,-0.00000228,-0.00001055,-0.00003829,0.00000375,-0.00001453,-0.000031
 93,0.00004291,0.00000035,-0.00001536,0.00002023,-0.00000224,0.00000057
 ,-0.00000805,0.00000061,-0.00000795,-0.00000901,0.00004886,0.00002865,
 0.00000555,0.00001172,0.00003440,-0.00000373,-0.00002840,0.00006402,-0
 .00000345,0.00001946,0.00000824\\\@


 THE SECRET OF SUCCESS IN LIFE IS TO EAT WHAT YOU LIKE, AND LET THE FOOD
 FIGHT IT OUT INSIDE YOU. -- FROM A FORTUNE COOKIE
 Job cpu time:       0 days  0 hours 37 minutes 27.5 seconds.
 Elapsed time:       0 days  0 hours  1 minutes 34.3 seconds.
 File lengths (MBytes):  RWF=    149 Int=      0 D2E=      0 Chk=     11 Scr=      1
 Normal termination of Gaussian 16 at Tue Jul 11 12:51:31 2023.
