 Entering Gaussian System, Link 0=/opt/soft/g16/g16
 Initial command:
 /opt/soft/g16/l1.exe "/scratch/gongke2021/RC/Gau-31642.inp" -scrdir="/scratch/gongke2021/RC/"
 Entering Link 1 = /opt/soft/g16/l1.exe PID=     31643.
  
 Copyright (c) 1988,1990,1992,1993,1995,1998,2003,2009,2016,
            Gaussian, Inc.  All Rights Reserved.
  
 This is part of the Gaussian(R) 16 program.  It is based on
 the Gaussian(R) 09 system (copyright 2009, Gaussian, Inc.),
 the Gaussian(R) 03 system (copyright 2003, Gaussian, Inc.),
 the Gaussian(R) 98 system (copyright 1998, Gaussian, Inc.),
 the Gaussian(R) 94 system (copyright 1995, Gaussian, Inc.),
 the Gaussian 92(TM) system (copyright 1992, Gaussian, Inc.),
 the Gaussian 90(TM) system (copyright 1990, Gaussian, Inc.),
 the Gaussian 88(TM) system (copyright 1988, Gaussian, Inc.),
 the Gaussian 86(TM) system (copyright 1986, Carnegie Mellon
 University), and the Gaussian 82(TM) system (copyright 1983,
 Carnegie Mellon University). Gaussian is a federally registered
 trademark of Gaussian, Inc.
  
 This software contains proprietary and confidential information,
 including trade secrets, belonging to Gaussian, Inc.
  
 This software is provided under written license and may be
 used, copied, transmitted, or stored only in accord with that
 written license.
  
 The following legend is applicable only to US Government
 contracts under FAR:
  
                    RESTRICTED RIGHTS LEGEND
  
 Use, reproduction and disclosure by the US Government is
 subject to restrictions as set forth in subparagraphs (a)
 and (c) of the Commercial Computer Software - Restricted
 Rights clause in FAR 52.227-19.
  
 Gaussian, Inc.
 340 Quinnipiac St., Bldg. 40, Wallingford CT 06492
  
  
 ---------------------------------------------------------------
 Warning -- This program may not be used in any manner that
 competes with the business of Gaussian, Inc. or will provide
 assistance to any competitor of Gaussian, Inc.  The licensee
 of this program is prohibited from giving any competitor of
 Gaussian, Inc. access to this program.  By using this program,
 the user acknowledges that Gaussian, Inc. is engaged in the
 business of creating and licensing software in the field of
 computational chemistry and represents and warrants to the
 licensee that it is not a competitor of Gaussian, Inc. and that
 it will not use this program in any manner prohibited above.
 ---------------------------------------------------------------
  

 Cite this work as:
 Gaussian 16, Revision A.03,
 M. J. Frisch, G. W. Trucks, H. B. Schlegel, G. E. Scuseria, 
 M. A. Robb, J. R. Cheeseman, G. Scalmani, V. Barone, 
 G. A. Petersson, H. Nakatsuji, X. Li, M. Caricato, A. V. Marenich, 
 J. Bloino, B. G. Janesko, R. Gomperts, B. Mennucci, H. P. Hratchian, 
 J. V. Ortiz, A. F. Izmaylov, J. L. Sonnenberg, D. Williams-Young, 
 F. Ding, F. Lipparini, F. Egidi, J. Goings, B. Peng, A. Petrone, 
 T. Henderson, D. Ranasinghe, V. G. Zakrzewski, J. Gao, N. Rega, 
 G. Zheng, W. Liang, M. Hada, M. Ehara, K. Toyota, R. Fukuda, 
 J. Hasegawa, M. Ishida, T. Nakajima, Y. Honda, O. Kitao, H. Nakai, 
 T. Vreven, K. Throssell, J. A. Montgomery, Jr., J. E. Peralta, 
 F. Ogliaro, M. J. Bearpark, J. J. Heyd, E. N. Brothers, K. N. Kudin, 
 V. N. Staroverov, T. A. Keith, R. Kobayashi, J. Normand, 
 K. Raghavachari, A. P. Rendell, J. C. Burant, S. S. Iyengar, 
 J. Tomasi, M. Cossi, J. M. Millam, M. Klene, C. Adamo, R. Cammi, 
 J. W. Ochterski, R. L. Martin, K. Morokuma, O. Farkas, 
 J. B. Foresman, and D. J. Fox, Gaussian, Inc., Wallingford CT, 2016.
 
 ******************************************
 Gaussian 16:  ES64L-G16RevA.03 25-Dec-2016
                11-Jul-2023 
 ******************************************
 %mem=10GB
 %nprocshared=24
 Will use up to   24 processors via shared memory.
 -----------------------------------------------------
 # opt freq 6-31+g(d,p) m062x scrf=(SMD,solvent=water)
 -----------------------------------------------------
 1/18=20,19=15,26=3,38=1/1,3;
 2/9=110,12=2,17=6,18=5,40=1/2;
 3/5=1,6=6,7=111,11=2,25=1,30=1,70=32201,71=1,72=1,74=-55/1,2,3;
 4//1;
 5/5=2,38=5,53=1/2;
 6/7=2,8=2,9=2,10=2,28=1/1;
 7//1,2,3,16;
 1/18=20,19=15,26=3/3(2);
 2/9=110/2;
 99//99;
 2/9=110/2;
 3/5=1,6=6,7=111,11=2,25=1,30=1,70=32205,71=1,72=1,74=-55/1,2,3;
 4/5=5,16=3,69=1/1;
 5/5=2,38=5,53=1/2;
 7//1,2,3,16;
 1/18=20,19=15,26=3/3(-5);
 2/9=110/2;
 6/7=2,8=2,9=2,10=2,19=2,28=1/1;
 99/9=1/99;
 ----
 test
 ----
 Symbolic Z-matrix:
 Charge =  0 Multiplicity = 1
 N                     1.04231   1.09222   0.02838 
 N                     0.87277  -0.21603  -0.00408 
 C                     2.11198  -0.69765  -0.1162 
 C                     2.99796   0.38822  -0.1459 
 N                     2.28547   1.5113   -0.05138 
 H                     2.29386  -1.76018  -0.16558 
 H                     4.07325   0.41361  -0.22693 
 H                     0.24897   1.74103   0.11835 
 C                    -0.91106  -2.28506   0.11877 
 O                     0.01639  -2.98124   0.11327 
 O                    -1.89046  -1.6522    0.12685 
 H                    -2.04617   2.17128   0.08633 
 O                    -1.24692   2.70593   0.25936 
 H                    -1.43357   3.26544   1.01851 
 H                    -2.88137   0.05077  -0.20941 
 O                    -3.27079   0.93051  -0.30177 
 H                    -3.71793   0.94865  -1.15345 
 
 Add virtual bond connecting atoms O13        and H8         Dist= 3.37D+00.
 Add virtual bond connecting atoms O16        and H12        Dist= 3.38D+00.
 Add virtual bond connecting atoms H15        and O11        Dist= 3.78D+00.

 GradGradGradGradGradGradGradGradGradGradGradGradGradGradGradGradGradGrad
 Berny optimization.
 Initialization pass.
                           ----------------------------
                           !    Initial Parameters    !
                           ! (Angstroms and Degrees)  !
 --------------------------                            --------------------------
 ! Name  Definition              Value          Derivative Info.                !
 --------------------------------------------------------------------------------
 ! R1    R(1,2)                  1.3196         estimate D2E/DX2                !
 ! R2    R(1,5)                  1.3143         estimate D2E/DX2                !
 ! R3    R(1,8)                  1.0288         estimate D2E/DX2                !
 ! R4    R(2,3)                  1.3342         estimate D2E/DX2                !
 ! R5    R(3,4)                  1.4018         estimate D2E/DX2                !
 ! R6    R(3,6)                  1.0791         estimate D2E/DX2                !
 ! R7    R(4,5)                  1.3334         estimate D2E/DX2                !
 ! R8    R(4,7)                  1.0786         estimate D2E/DX2                !
 ! R9    R(8,13)                 1.7857         estimate D2E/DX2                !
 ! R10   R(9,10)                 1.1597         estimate D2E/DX2                !
 ! R11   R(9,11)                 1.1661         estimate D2E/DX2                !
 ! R12   R(11,15)                1.9988         estimate D2E/DX2                !
 ! R13   R(12,13)                0.977          estimate D2E/DX2                !
 ! R14   R(12,16)                1.786          estimate D2E/DX2                !
 ! R15   R(13,14)                0.9614         estimate D2E/DX2                !
 ! R16   R(15,16)                0.9665         estimate D2E/DX2                !
 ! R17   R(16,17)                0.9621         estimate D2E/DX2                !
 ! A1    A(2,1,5)              115.858          estimate D2E/DX2                !
 ! A2    A(2,1,8)              121.8905         estimate D2E/DX2                !
 ! A3    A(5,1,8)              122.2497         estimate D2E/DX2                !
 ! A4    A(1,2,3)              103.9226         estimate D2E/DX2                !
 ! A5    A(2,3,4)              108.0103         estimate D2E/DX2                !
 ! A6    A(2,3,6)              121.0521         estimate D2E/DX2                !
 ! A7    A(4,3,6)              130.9374         estimate D2E/DX2                !
 ! A8    A(3,4,5)              108.2542         estimate D2E/DX2                !
 ! A9    A(3,4,7)              130.5349         estimate D2E/DX2                !
 ! A10   A(5,4,7)              121.2109         estimate D2E/DX2                !
 ! A11   A(1,5,4)              103.9548         estimate D2E/DX2                !
 ! A12   A(9,11,15)            151.3558         estimate D2E/DX2                !
 ! A13   A(8,13,12)            112.0619         estimate D2E/DX2                !
 ! A14   A(8,13,14)            122.6488         estimate D2E/DX2                !
 ! A15   A(12,13,14)           107.428          estimate D2E/DX2                !
 ! A16   A(12,16,15)           109.5913         estimate D2E/DX2                !
 ! A17   A(12,16,17)           119.8632         estimate D2E/DX2                !
 ! A18   A(15,16,17)           106.7992         estimate D2E/DX2                !
 ! A19   L(1,8,13,11,-1)       173.5734         estimate D2E/DX2                !
 ! A20   L(10,9,11,1,-1)       184.0258         estimate D2E/DX2                !
 ! A21   L(13,12,16,2,-1)      168.5099         estimate D2E/DX2                !
 ! A22   L(11,15,16,1,-1)      173.6164         estimate D2E/DX2                !
 ! A23   L(1,8,13,11,-2)       180.5394         estimate D2E/DX2                !
 ! A24   L(10,9,11,1,-2)       180.0296         estimate D2E/DX2                !
 ! A25   L(13,12,16,2,-2)      181.669          estimate D2E/DX2                !
 ! A26   L(11,15,16,1,-2)      184.1097         estimate D2E/DX2                !
 ! D1    D(5,1,2,3)             -0.064          estimate D2E/DX2                !
 ! D2    D(8,1,2,3)           -179.585          estimate D2E/DX2                !
 ! D3    D(2,1,5,4)              0.0696         estimate D2E/DX2                !
 ! D4    D(8,1,5,4)            179.5888         estimate D2E/DX2                !
 ! D5    D(2,1,13,12)          -13.506          estimate D2E/DX2                !
 ! D6    D(2,1,13,14)          115.0932         estimate D2E/DX2                !
 ! D7    D(5,1,13,12)          166.5314         estimate D2E/DX2                !
 ! D8    D(5,1,13,14)          -64.8694         estimate D2E/DX2                !
 ! D9    D(1,2,3,4)              0.0302         estimate D2E/DX2                !
 ! D10   D(1,2,3,6)            179.9027         estimate D2E/DX2                !
 ! D11   D(2,3,4,5)              0.0091         estimate D2E/DX2                !
 ! D12   D(2,3,4,7)            179.9573         estimate D2E/DX2                !
 ! D13   D(6,3,4,5)           -179.8463         estimate D2E/DX2                !
 ! D14   D(6,3,4,7)              0.1019         estimate D2E/DX2                !
 ! D15   D(3,4,5,1)             -0.0444         estimate D2E/DX2                !
 ! D16   D(7,4,5,1)           -179.9984         estimate D2E/DX2                !
 ! D17   D(9,11,16,12)         -30.8023         estimate D2E/DX2                !
 ! D18   D(9,11,16,17)         100.0789         estimate D2E/DX2                !
 ! D19   D(8,13,16,15)          17.1251         estimate D2E/DX2                !
 ! D20   D(8,13,16,17)        -103.9911         estimate D2E/DX2                !
 ! D21   D(14,13,16,15)       -118.7532         estimate D2E/DX2                !
 ! D22   D(14,13,16,17)        120.1306         estimate D2E/DX2                !
 --------------------------------------------------------------------------------
 Trust Radius=3.00D-01 FncErr=1.00D-07 GrdErr=1.00D-06 EigMax=2.50D+02 EigMin=1.00D-04
 Number of steps in this run=     75 maximum allowed number of steps=    102.
 GradGradGradGradGradGradGradGradGradGradGradGradGradGradGradGradGradGrad

                          Input orientation:                          
 ---------------------------------------------------------------------
 Center     Atomic      Atomic             Coordinates (Angstroms)
 Number     Number       Type             X           Y           Z
 ---------------------------------------------------------------------
      1          7           0        1.042313    1.092222    0.028384
      2          7           0        0.872774   -0.216033   -0.004080
      3          6           0        2.111976   -0.697652   -0.116196
      4          6           0        2.997961    0.388219   -0.145896
      5          7           0        2.285475    1.511297   -0.051378
      6          1           0        2.293861   -1.760178   -0.165580
      7          1           0        4.073251    0.413610   -0.226929
      8          1           0        0.248969    1.741025    0.118354
      9          6           0       -0.911059   -2.285060    0.118769
     10          8           0        0.016392   -2.981242    0.113265
     11          8           0       -1.890457   -1.652203    0.126848
     12          1           0       -2.046172    2.171280    0.086331
     13          8           0       -1.246922    2.705931    0.259356
     14          1           0       -1.433568    3.265441    1.018511
     15          1           0       -2.881366    0.050774   -0.209405
     16          8           0       -3.270794    0.930508   -0.301767
     17          1           0       -3.717926    0.948647   -1.153449
 ---------------------------------------------------------------------
                    Distance matrix (angstroms):
                    1          2          3          4          5
     1  N    0.000000
     2  N    1.319594   0.000000
     3  C    2.090151   1.334222   0.000000
     4  C    2.085798   2.213967   1.401773   0.000000
     5  N    1.314320   2.231957   2.216700   1.333369   0.000000
     6  H    3.120926   2.104746   1.079112   2.260919   3.273478
     7  H    3.116454   3.269429   2.256937   1.078638   2.105203
     8  H    1.028803   2.057717   3.077816   3.075202   2.056439
     9  C    3.902546   2.734598   3.422545   4.743090   4.965794
    10  O    4.201527   2.897161   3.107878   4.506682   5.035747
    11  O    4.017798   3.116917   4.121857   5.304182   5.241937
    12  H    3.272073   3.771960   5.055886   5.355046   4.383801
    13  O    2.810338   3.619445   4.796625   4.853354   3.741862
    14  H    3.439945   4.299485   5.437329   5.410425   4.248878
    15  H    4.066499   3.769206   5.049980   5.889345   5.371624
    16  O    4.328746   4.309563   5.626682   6.294097   5.592149
    17  H    4.906854   4.873608   6.146052   6.814131   6.129597
                    6          7          8          9         10
     6  H    0.000000
     7  H    2.809866   0.000000
     8  H    4.064557   4.062805   0.000000
     9  C    3.260041   5.678527   4.189872   0.000000
    10  O    2.599157   5.300836   4.727994   1.159683   0.000000
    11  O    4.195913   6.321278   4.011385   1.166102   2.324350
    12  H    5.861374   6.374549   2.335341   4.598750   5.550079
    13  O    5.715229   5.813385   1.785669   5.004254   5.827627
    14  H    6.368096   6.325276   2.442347   5.647177   6.476334
    15  H    5.483105   6.964098   3.572586   3.073423   4.206452
    16  O    6.182534   7.362593   3.636230   4.010621   5.126366
    17  H    6.667473   7.864295   4.240472   4.466979   5.567201
                   11         12         13         14         15
    11  O    0.000000
    12  H    3.826867   0.000000
    13  O    4.407383   0.977031   0.000000
    14  H    5.018668   1.562508   0.961356   0.000000
    15  H    1.998774   2.298163   3.152936   3.733361   0.000000
    16  O    2.959635   1.786011   2.750099   3.251222   0.966497
    17  H    3.426839   2.413845   3.345135   3.911935   1.548298
                   16         17
    16  O    0.000000
    17  H    0.962091   0.000000
 Stoichiometry    C3H7N3O4
 Framework group  C1[X(C3H7N3O4)]
 Deg. of freedom    45
 Full point group                 C1      NOp   1
 Largest Abelian subgroup         C1      NOp   1
 Largest concise Abelian subgroup C1      NOp   1
                         Standard orientation:                         
 ---------------------------------------------------------------------
 Center     Atomic      Atomic             Coordinates (Angstroms)
 Number     Number       Type             X           Y           Z
 ---------------------------------------------------------------------
      1          7           0        1.042313   -1.092222   -0.028384
      2          7           0        0.872774    0.216033    0.004080
      3          6           0        2.111976    0.697652    0.116196
      4          6           0        2.997961   -0.388218    0.145896
      5          7           0        2.285475   -1.511297    0.051378
      6          1           0        2.293861    1.760178    0.165580
      7          1           0        4.073251   -0.413609    0.226929
      8          1           0        0.248969   -1.741025   -0.118354
      9          6           0       -0.911060    2.285060   -0.118769
     10          8           0        0.016391    2.981242   -0.113265
     11          8           0       -1.890457    1.652203   -0.126848
     12          1           0       -2.046172   -2.171280   -0.086331
     13          8           0       -1.246921   -2.705931   -0.259356
     14          1           0       -1.433567   -3.265441   -1.018511
     15          1           0       -2.881366   -0.050775    0.209405
     16          8           0       -3.270794   -0.930509    0.301767
     17          1           0       -3.717926   -0.948648    1.153449
 ---------------------------------------------------------------------
 Rotational constants (GHZ):           1.0911338           0.8681656           0.4892259
 Standard basis: 6-31+G(d,p) (6D, 7F)
 There are   225 symmetry adapted cartesian basis functions of A   symmetry.
 There are   225 symmetry adapted basis functions of A   symmetry.
   225 basis functions,   369 primitive gaussians,   225 cartesian basis functions
    39 alpha electrons       39 beta electrons
       nuclear repulsion energy       510.1477278288 Hartrees.
 NAtoms=   17 NActive=   17 NUniq=   17 SFac= 1.00D+00 NAtFMM=   60 NAOKFM=F Big=F
 Integral buffers will be    131072 words long.
 Raffenetti 2 integral format.
 Two-electron integral symmetry is turned on.
 ------------------------------------------------------------------------------
 Polarizable Continuum Model (PCM)
 =================================
 Model                : PCM.
 Atomic radii         : SMD-Coulomb.
 Polarization charges : Total charges.
 Charge compensation  : None.
 Solution method      : On-the-fly selection.
 Cavity type          : VdW (van der Waals Surface) (Alpha=1.000).
 Cavity algorithm     : GePol (No added spheres)
                        Default sphere list used, NSphG=   17.
                        Lebedev-Laikov grids with approx.  5.0 points / Ang**2.
                        Smoothing algorithm: York/Karplus (Gamma=1.0000).
                        Polarization charges: spherical gaussians, with
                                              point-specific exponents (IZeta= 3).
                        Self-potential: point-specific (ISelfS= 7).
                        Self-field    : sphere-specific E.n sum rule (ISelfD= 2).
 1st derivatives      : Analytical E(r).r(x)/FMM algorithm (CHGder, D1EAlg=3).
                        Cavity 1st derivative terms included.
 Solvent              : Water, Eps=  78.355300 Eps(inf)=   1.777849
 ------------------------------------------------------------------------------
 Spheres list:
 ISph  on   Nord     Re0    Alpha      Xe            Ye            Ze
    1   N      1    1.8900  1.000      1.042313     -1.092222     -0.028384
    2   N      2    1.8900  1.000      0.872774      0.216033      0.004080
    3   C      3    1.8500  1.000      2.111976      0.697652      0.116196
    4   C      4    1.8500  1.000      2.997961     -0.388218      0.145896
    5   N      5    1.8900  1.000      2.285475     -1.511297      0.051378
    6   H      6    1.2000  1.000      2.293861      1.760178      0.165580
    7   H      7    1.2000  1.000      4.073251     -0.413609      0.226929
    8   H      8    1.2000  1.000      0.248969     -1.741025     -0.118354
    9   C      9    1.8500  1.000     -0.911060      2.285060     -0.118769
   10   O     10    1.5200  1.000      0.016391      2.981242     -0.113265
   11   O     11    1.5200  1.000     -1.890457      1.652203     -0.126848
   12   H     12    1.2000  1.000     -2.046172     -2.171280     -0.086331
   13   O     13    1.5200  1.000     -1.246921     -2.705931     -0.259356
   14   H     14    1.2000  1.000     -1.433567     -3.265441     -1.018511
   15   H     15    1.2000  1.000     -2.881366     -0.050775      0.209405
   16   O     16    1.5200  1.000     -3.270794     -0.930509      0.301767
   17   H     17    1.2000  1.000     -3.717926     -0.948648      1.153449
 ------------------------------------------------------------------------------
 ------------------------------------------------------------------------------
 Atomic radii for non-electrostatic terms: SMD-CDS.
 ------------------------------------------------------------------------------
 Nuclear repulsion after PCM non-electrostatic terms =      510.1587712312 Hartrees.
 One-electron integrals computed using PRISM.
 NBasis=   225 RedAO= T EigKep=  2.88D-05  NBF=   225
 NBsUse=   225 1.00D-06 EigRej= -1.00D+00 NBFU=   225
 ExpMin= 4.38D-02 ExpMax= 5.48D+03 ExpMxC= 8.25D+02 IAcc=3 IRadAn=         5 AccDes= 0.00D+00
 Harris functional with IExCor= 1009 and IRadAn=       5 diagonalized for initial guess.
 HarFok:  IExCor= 1009 AccDes= 0.00D+00 IRadAn=         5 IDoV= 1 UseB2=F ITyADJ=14
 ICtDFT=  3500011 ScaDFX=  1.000000  1.000000  1.000000  1.000000
 FoFCou: FMM=F IPFlag=           0 FMFlag=      100000 FMFlg1=           0
         NFxFlg=           0 DoJE=T BraDBF=F KetDBF=T FulRan=T
         wScrn=  0.000000 ICntrl=       500 IOpCl=  0 I1Cent=   200000004 NGrid=           0
         NMat0=    1 NMatS0=      1 NMatT0=    0 NMatD0=    1 NMtDS0=    0 NMtDT0=    0
 Petite list used in FoFCou.
 Requested convergence on RMS density matrix=1.00D-08 within 128 cycles.
 Requested convergence on MAX density matrix=1.00D-06.
 Requested convergence on             energy=1.00D-06.
 No special actions if energy rises.
 Inv3:  Mode=1 IEnd=     6750000.
 Iteration    1 A*A^-1 deviation from unit magnitude is 3.00D-15 for    362.
 Iteration    1 A*A^-1 deviation from orthogonality  is 1.72D-15 for    755    208.
 Iteration    1 A^-1*A deviation from unit magnitude is 3.22D-15 for    362.
 Iteration    1 A^-1*A deviation from orthogonality  is 2.41D-15 for    693    309.
 Error on total polarization charges =  0.04574
 SCF Done:  E(RM062X) =  -583.508359816     A.U. after   14 cycles
            NFock= 14  Conv=0.30D-08     -V/T= 2.0083
 SMD-CDS (non-electrostatic) energy       (kcal/mol) =       6.93
 (included in total energy above)

 **********************************************************************

            Population analysis using the SCF density.

 **********************************************************************

 Orbital symmetries:
       Occupied  (A) (A) (A) (A) (A) (A) (A) (A) (A) (A) (A) (A)
                 (A) (A) (A) (A) (A) (A) (A) (A) (A) (A) (A) (A)
                 (A) (A) (A) (A) (A) (A) (A) (A) (A) (A) (A) (A)
                 (A) (A) (A)
       Virtual   (A) (A) (A) (A) (A) (A) (A) (A) (A) (A) (A) (A)
                 (A) (A) (A) (A) (A) (A) (A) (A) (A) (A) (A) (A)
                 (A) (A) (A) (A) (A) (A) (A) (A) (A) (A) (A) (A)
                 (A) (A) (A) (A) (A) (A) (A) (A) (A) (A) (A) (A)
                 (A) (A) (A) (A) (A) (A) (A) (A) (A) (A) (A) (A)
                 (A) (A) (A) (A) (A) (A) (A) (A) (A) (A) (A) (A)
                 (A) (A) (A) (A) (A) (A) (A) (A) (A) (A) (A) (A)
                 (A) (A) (A) (A) (A) (A) (A) (A) (A) (A) (A) (A)
                 (A) (A) (A) (A) (A) (A) (A) (A) (A) (A) (A) (A)
                 (A) (A) (A) (A) (A) (A) (A) (A) (A) (A) (A) (A)
                 (A) (A) (A) (A) (A) (A) (A) (A) (A) (A) (A) (A)
                 (A) (A) (A) (A) (A) (A) (A) (A) (A) (A) (A) (A)
                 (A) (A) (A) (A) (A) (A) (A) (A) (A) (A) (A) (A)
                 (A) (A) (A) (A) (A) (A) (A) (A) (A) (A) (A) (A)
                 (A) (A) (A) (A) (A) (A) (A) (A) (A) (A) (A) (A)
                 (A) (A) (A) (A) (A) (A)
 The electronic state is 1-A.
 Alpha  occ. eigenvalues --  -19.73039 -19.73014 -19.65439 -19.64457 -14.86692
 Alpha  occ. eigenvalues --  -14.80909 -14.80779 -10.75534 -10.57792 -10.57688
 Alpha  occ. eigenvalues --   -1.29253  -1.24278  -1.23191  -1.14112  -1.12518
 Alpha  occ. eigenvalues --   -1.00368  -0.92393  -0.71341  -0.71306  -0.66824
 Alpha  occ. eigenvalues --   -0.63358  -0.62403  -0.61148  -0.60152  -0.59898
 Alpha  occ. eigenvalues --   -0.59415  -0.55714  -0.52743  -0.51101  -0.49037
 Alpha  occ. eigenvalues --   -0.45864  -0.44566  -0.44485  -0.40784  -0.40565
 Alpha  occ. eigenvalues --   -0.39885  -0.37957  -0.35814  -0.32987
 Alpha virt. eigenvalues --    0.01305   0.02948   0.03348   0.04440   0.04858
 Alpha virt. eigenvalues --    0.05744   0.06424   0.06933   0.07801   0.08324
 Alpha virt. eigenvalues --    0.08477   0.09189   0.09341   0.10462   0.11907
 Alpha virt. eigenvalues --    0.13303   0.14258   0.15214   0.15877   0.16527
 Alpha virt. eigenvalues --    0.17051   0.17647   0.18597   0.19629   0.21435
 Alpha virt. eigenvalues --    0.22162   0.22394   0.23536   0.24042   0.24760
 Alpha virt. eigenvalues --    0.24906   0.25515   0.26188   0.27051   0.27326
 Alpha virt. eigenvalues --    0.27975   0.29025   0.29441   0.30068   0.30729
 Alpha virt. eigenvalues --    0.32255   0.33199   0.33840   0.34199   0.34996
 Alpha virt. eigenvalues --    0.35414   0.36333   0.36679   0.39242   0.40451
 Alpha virt. eigenvalues --    0.41960   0.42837   0.43845   0.44237   0.46658
 Alpha virt. eigenvalues --    0.52266   0.56857   0.72336   0.74488   0.75350
 Alpha virt. eigenvalues --    0.77241   0.78623   0.80971   0.87692   0.92039
 Alpha virt. eigenvalues --    0.93159   0.93592   0.94756   0.96195   0.96492
 Alpha virt. eigenvalues --    0.98820   1.01310   1.01475   1.02073   1.04579
 Alpha virt. eigenvalues --    1.05679   1.06626   1.08112   1.12028   1.12859
 Alpha virt. eigenvalues --    1.16228   1.17348   1.18900   1.19101   1.19837
 Alpha virt. eigenvalues --    1.21005   1.23392   1.24427   1.24477   1.27974
 Alpha virt. eigenvalues --    1.28584   1.29263   1.30938   1.31154   1.33072
 Alpha virt. eigenvalues --    1.33596   1.35756   1.38428   1.39157   1.39797
 Alpha virt. eigenvalues --    1.42945   1.45321   1.45796   1.48396   1.49033
 Alpha virt. eigenvalues --    1.51478   1.51819   1.57471   1.57494   1.58446
 Alpha virt. eigenvalues --    1.59716   1.60684   1.61710   1.64227   1.65977
 Alpha virt. eigenvalues --    1.67185   1.68678   1.77514   1.78473   1.82165
 Alpha virt. eigenvalues --    1.83928   1.91565   1.94477   1.97726   2.05698
 Alpha virt. eigenvalues --    2.08040   2.09693   2.09918   2.17209   2.19393
 Alpha virt. eigenvalues --    2.20204   2.21376   2.22205   2.24128   2.27700
 Alpha virt. eigenvalues --    2.28917   2.29258   2.31010   2.34768   2.35991
 Alpha virt. eigenvalues --    2.43767   2.45078   2.46472   2.54208   2.56874
 Alpha virt. eigenvalues --    2.58670   2.63156   2.63705   2.64877   2.66173
 Alpha virt. eigenvalues --    2.68112   2.69484   2.69998   2.70978   2.73799
 Alpha virt. eigenvalues --    2.75766   2.76588   2.82057   2.84590   2.93574
 Alpha virt. eigenvalues --    3.03592   3.04472   3.06589   3.07056   3.08882
 Alpha virt. eigenvalues --    3.14392   3.15671   3.31653   3.34572   3.39169
 Alpha virt. eigenvalues --    3.43385   3.49071   3.58028   3.63352   3.66553
 Alpha virt. eigenvalues --    3.73777   4.04540   4.18412   4.23811   4.25108
 Alpha virt. eigenvalues --    4.30514   4.43683   4.47685   4.67331   4.70430
 Alpha virt. eigenvalues --    4.96817
          Condensed to atoms (all electrons):
               1          2          3          4          5          6
     1  N    7.276301  -0.319486  -0.011455  -0.026821  -0.109437   0.026464
     2  N   -0.319486   7.303102   0.174085   0.031614   0.207381  -0.062867
     3  C   -0.011455   0.174085   5.870068  -0.281136  -0.084547   0.400552
     4  C   -0.026821   0.031614  -0.281136   5.875330   0.319201  -0.021734
     5  N   -0.109437   0.207381  -0.084547   0.319201   6.975166  -0.008330
     6  H    0.026464  -0.062867   0.400552  -0.021734  -0.008330   0.446628
     7  H    0.033354  -0.019377  -0.013332   0.390490  -0.059032   0.000384
     8  H    0.313198  -0.041452   0.012923   0.004961  -0.037956  -0.000041
     9  C    0.001212  -0.007793  -0.011460  -0.013503   0.001690  -0.000559
    10  O    0.011048   0.000293  -0.035274   0.038829  -0.004015  -0.001839
    11  O   -0.006953   0.016716   0.004105  -0.010149   0.002642  -0.000274
    12  H   -0.004815   0.006600   0.000036   0.000152  -0.002347  -0.000000
    13  O   -0.059491  -0.008575   0.008759  -0.009523   0.038581   0.000020
    14  H    0.003837   0.000692  -0.000434   0.000486  -0.002229  -0.000000
    15  H    0.000547  -0.000278  -0.000537   0.000355  -0.000035  -0.000000
    16  O    0.005144  -0.006351   0.002020  -0.001396   0.002960  -0.000001
    17  H   -0.000542   0.000310  -0.000113   0.000095  -0.000143   0.000000
               7          8          9         10         11         12
     1  N    0.033354   0.313198   0.001212   0.011048  -0.006953  -0.004815
     2  N   -0.019377  -0.041452  -0.007793   0.000293   0.016716   0.006600
     3  C   -0.013332   0.012923  -0.011460  -0.035274   0.004105   0.000036
     4  C    0.390490   0.004961  -0.013503   0.038829  -0.010149   0.000152
     5  N   -0.059032  -0.037956   0.001690  -0.004015   0.002642  -0.002347
     6  H    0.000384  -0.000041  -0.000559  -0.001839  -0.000274  -0.000000
     7  H    0.446602  -0.000028   0.000031  -0.000022  -0.000001  -0.000000
     8  H   -0.000028   0.282500   0.000517   0.000060  -0.000067  -0.000462
     9  C    0.000031   0.000517   4.298984   0.432329   0.437656  -0.000055
    10  O   -0.000022   0.000060   0.432329   8.051375  -0.118820   0.000011
    11  O   -0.000001  -0.000067   0.437656  -0.118820   8.118507  -0.000052
    12  H   -0.000000  -0.000462  -0.000055   0.000011  -0.000052   0.258621
    13  O    0.000018   0.002021  -0.000973   0.000000  -0.000411   0.269089
    14  H   -0.000000  -0.000979   0.000010  -0.000001   0.000020  -0.014306
    15  H   -0.000000   0.000001  -0.000075  -0.000044   0.009309  -0.000553
    16  O    0.000000   0.000018  -0.003515  -0.000195   0.003311   0.005134
    17  H   -0.000000  -0.000001   0.000314  -0.000003  -0.000399  -0.001092
              13         14         15         16         17
     1  N   -0.059491   0.003837   0.000547   0.005144  -0.000542
     2  N   -0.008575   0.000692  -0.000278  -0.006351   0.000310
     3  C    0.008759  -0.000434  -0.000537   0.002020  -0.000113
     4  C   -0.009523   0.000486   0.000355  -0.001396   0.000095
     5  N    0.038581  -0.002229  -0.000035   0.002960  -0.000143
     6  H    0.000020  -0.000000  -0.000000  -0.000001   0.000000
     7  H    0.000018  -0.000000  -0.000000   0.000000  -0.000000
     8  H    0.002021  -0.000979   0.000001   0.000018  -0.000001
     9  C   -0.000973   0.000010  -0.000075  -0.003515   0.000314
    10  O    0.000000  -0.000001  -0.000044  -0.000195  -0.000003
    11  O   -0.000411   0.000020   0.009309   0.003311  -0.000399
    12  H    0.269089  -0.014306  -0.000553   0.005134  -0.001092
    13  O    8.403856   0.287119   0.000983  -0.038295   0.002031
    14  H    0.287119   0.292164  -0.000002   0.001830  -0.000019
    15  H    0.000983  -0.000002   0.284740   0.258836  -0.014752
    16  O   -0.038295   0.001830   0.258836   8.369620   0.288176
    17  H    0.002031  -0.000019  -0.014752   0.288176   0.286832
 Mulliken charges:
               1
     1  N   -0.132106
     2  N   -0.274614
     3  C   -0.034258
     4  C   -0.297250
     5  N   -0.239549
     6  H    0.221598
     7  H    0.220913
     8  H    0.464787
     9  C    0.865191
    10  O   -0.373730
    11  O   -0.455140
    12  H    0.484039
    13  O   -0.895208
    14  H    0.431814
    15  H    0.461506
    16  O   -0.887299
    17  H    0.439306
 Sum of Mulliken charges =  -0.00000
 Mulliken charges with hydrogens summed into heavy atoms:
               1
     1  N    0.332681
     2  N   -0.274614
     3  C    0.187340
     4  C   -0.076337
     5  N   -0.239549
     9  C    0.865191
    10  O   -0.373730
    11  O   -0.455140
    13  O    0.020645
    16  O    0.013514
 Electronic spatial extent (au):  <R**2>=           2112.4200
 Charge=             -0.0000 electrons
 Dipole moment (field-independent basis, Debye):
    X=             -2.6710    Y=              1.8428    Z=              0.4378  Tot=              3.2745
 Quadrupole moment (field-independent basis, Debye-Ang):
   XX=            -49.1778   YY=            -60.1366   ZZ=            -55.4263
   XY=              6.1610   XZ=             -4.2685   YZ=              4.4903
 Traceless Quadrupole moment (field-independent basis, Debye-Ang):
   XX=              5.7357   YY=             -5.2230   ZZ=             -0.5127
   XY=              6.1610   XZ=             -4.2685   YZ=              4.4903
 Octapole moment (field-independent basis, Debye-Ang**2):
  XXX=            -17.7695  YYY=             -4.3482  ZZZ=             -0.2424  XYY=            -36.1723
  XXY=             11.9864  XXZ=             27.9059  XZZ=            -25.6498  YZZ=             -5.9789
  YYZ=            -18.4061  XYZ=             -1.2568
 Hexadecapole moment (field-independent basis, Debye-Ang**3):
 XXXX=          -1256.9834 YYYY=          -1086.4110 ZZZZ=            -64.5798 XXXY=             70.3969
 XXXZ=            -97.9705 YYYX=             60.0978 YYYZ=             73.3666 ZZZX=            -16.0157
 ZZZY=              6.0931 XXYY=           -423.2662 XXZZ=           -224.7949 YYZZ=           -167.2994
 XXYZ=            -10.5429 YYXZ=             22.4804 ZZXY=             21.9037
 N-N= 5.101587712312D+02 E-N=-2.387341543840D+03  KE= 5.786891644485D+02
 D1PCM: PCM CHGder 1st derivatives, ID1Alg=3 FixD1E=F DoIter=F DoCFld=F I1PDM=0.
 Calling FoFJK, ICntrl=      2127 FMM=F ISym2X=0 I1Cent= 0 IOpClX= 0 NMat=1 NMatS=1 NMatT=0.
 ***** Axes restored to original set *****
 -------------------------------------------------------------------
 Center     Atomic                   Forces (Hartrees/Bohr)
 Number     Number              X              Y              Z
 -------------------------------------------------------------------
      1        7          -0.002247474   -0.000712172   -0.000012433
      2        7           0.000906896    0.003402015    0.000156034
      3        6           0.001450522    0.000732126    0.000005333
      4        6           0.000682177   -0.002703706   -0.000104428
      5        7           0.000756808    0.000262864   -0.000181883
      6        1           0.001215429    0.000061105   -0.000177641
      7        1           0.000254064   -0.000733275   -0.000075770
      8        1          -0.002763065    0.000592401    0.000873599
      9        6          -0.007790176    0.000800850   -0.000147548
     10        8           0.003833345   -0.001659055    0.000026087
     11        8           0.003672578   -0.001393518    0.000517075
     12        1          -0.001334491   -0.001750334    0.000254317
     13        8           0.003736654    0.000442324   -0.004419417
     14        1          -0.001440065    0.001404414    0.003401286
     15        1          -0.000425070    0.000024071   -0.001983661
     16        8           0.000342960    0.002413141    0.005406448
     17        1          -0.000851091   -0.001183251   -0.003537398
 -------------------------------------------------------------------
 Cartesian Forces:  Max     0.007790176 RMS     0.002180943

 GradGradGradGradGradGradGradGradGradGradGradGradGradGradGradGradGradGrad
 Berny optimization.
 FormGI is forming the generalized inverse of G from B-inverse, IUseBI=4.
 Internal  Forces:  Max     0.011042928 RMS     0.002954625
 Search for a local minimum.
 Step number   1 out of a maximum of   75
 All quantities printed in internal units (Hartrees-Bohrs-Radians)
 Mixed Optimization -- RFO/linear search
 Second derivative matrix not updated -- first step.
 ITU=  0
     Eigenvalues ---    0.00230   0.00230   0.00230   0.00230   0.00230
     Eigenvalues ---    0.00230   0.00230   0.01369   0.01468   0.01586
     Eigenvalues ---    0.02151   0.02165   0.02260   0.02320   0.02442
     Eigenvalues ---    0.03381   0.04315   0.04786   0.04786   0.06276
     Eigenvalues ---    0.06280   0.12295   0.12840   0.15998   0.16000
     Eigenvalues ---    0.16000   0.16000   0.16000   0.16000   0.22616
     Eigenvalues ---    0.23228   0.36102   0.36159   0.41979   0.42962
     Eigenvalues ---    0.51960   0.53165   0.54099   0.55026   0.55183
     Eigenvalues ---    0.56304   0.59559   0.62111   1.23882   1.28001
 RFO step:  Lambda=-1.41302378D-02 EMin= 2.30000000D-03
 Linear search not attempted -- first point.
 Maximum step size (   0.300) exceeded in Quadratic search.
    -- Step size scaled by   0.371
 Iteration  1 RMS(Cart)=  0.33645766 RMS(Int)=  0.02207633
 Iteration  2 RMS(Cart)=  0.34080674 RMS(Int)=  0.00939077
 Iteration  3 RMS(Cart)=  0.01803861 RMS(Int)=  0.00082021
 Iteration  4 RMS(Cart)=  0.00002985 RMS(Int)=  0.00082018
 Iteration  5 RMS(Cart)=  0.00000003 RMS(Int)=  0.00082018
 Variable       Old X    -DE/DX   Delta X   Delta X   Delta X     New X
                                 (Linear)    (Quad)   (Total)
    R1        2.49367  -0.00204   0.00000  -0.00117  -0.00117   2.49251
    R2        2.48371   0.00243   0.00000   0.00148   0.00148   2.48519
    R3        1.94416   0.00213   0.00000   0.00178   0.00178   1.94593
    R4        2.52131   0.00210   0.00000   0.00121   0.00121   2.52253
    R5        2.64897  -0.00261   0.00000  -0.00216  -0.00216   2.64681
    R6        2.03923   0.00015   0.00000   0.00015   0.00015   2.03937
    R7        2.51970   0.00188   0.00000   0.00120   0.00120   2.52091
    R8        2.03833   0.00024   0.00000   0.00024   0.00024   2.03857
    R9        3.37443  -0.00035   0.00000  -0.00170  -0.00169   3.37273
   R10        2.19148   0.00407   0.00000   0.00117   0.00117   2.19265
   R11        2.20361  -0.00284   0.00000  -0.00084  -0.00084   2.20277
   R12        3.77714   0.00184   0.00000   0.01194   0.01194   3.78908
   R13        1.84632   0.00354   0.00000   0.00246   0.00244   1.84876
   R14        3.37507   0.00149   0.00000   0.00718   0.00719   3.38226
   R15        1.81670   0.00379   0.00000   0.00248   0.00248   1.81918
   R16        1.82641   0.00163   0.00000   0.00109   0.00108   1.82750
   R17        1.81809   0.00350   0.00000   0.00230   0.00230   1.82039
    A1        2.02210  -0.00223   0.00000  -0.00321  -0.00321   2.01889
    A2        2.12739   0.00184   0.00000   0.00315   0.00314   2.13054
    A3        2.13366   0.00039   0.00000   0.00006   0.00007   2.13373
    A4        1.81379   0.00158   0.00000   0.00209   0.00209   1.81588
    A5        1.88514   0.00022   0.00000   0.00007   0.00007   1.88520
    A6        2.11276   0.00114   0.00000   0.00262   0.00262   2.11538
    A7        2.28529  -0.00136   0.00000  -0.00269  -0.00269   2.28260
    A8        1.88939  -0.00074   0.00000  -0.00114  -0.00114   1.88825
    A9        2.27826  -0.00037   0.00000  -0.00101  -0.00101   2.27725
   A10        2.11553   0.00112   0.00000   0.00216   0.00216   2.11769
   A11        1.81435   0.00117   0.00000   0.00220   0.00220   1.81655
   A12        2.64166   0.00390   0.00000   0.00831   0.00831   2.64997
   A13        1.95585   0.00693   0.00000   0.01278   0.01348   1.96933
   A14        2.14063  -0.00278   0.00000  -0.00822  -0.00525   2.13538
   A15        1.87497  -0.00394   0.00000  -0.01071  -0.01084   1.86413
   A16        1.91273   0.00915   0.00000   0.01932   0.01919   1.93192
   A17        2.09201  -0.00270   0.00000  -0.00502  -0.00455   2.08745
   A18        1.86400  -0.00493   0.00000  -0.01135  -0.01194   1.85205
   A19        3.02943   0.00562   0.00000   0.12417   0.12350   3.15292
   A20        3.21186  -0.00214   0.00000  -0.01282  -0.01282   3.19904
   A21        2.94105   0.01104   0.00000   0.24445   0.24487   3.18592
   A22        3.03018   0.00883   0.00000   0.11550   0.11575   3.14593
   A23        3.15101   0.00017   0.00000   0.00321   0.00350   3.15451
   A24        3.14211   0.00013   0.00000   0.00078   0.00078   3.14289
   A25        3.17072   0.00001   0.00000  -0.00142   0.00035   3.17108
   A26        3.21332   0.00020   0.00000   0.00459   0.00495   3.21827
    D1       -0.00112  -0.00008   0.00000  -0.00035   0.00010  -0.00102
    D2       -3.13435   0.00006   0.00000  -0.00009  -0.00076  -3.13511
    D3        0.00121   0.00007   0.00000   0.00027  -0.00018   0.00104
    D4        3.13442  -0.00006   0.00000   0.00002   0.00069   3.13511
    D5       -0.23572  -0.00018   0.00000  -0.01068  -0.01262  -0.24834
    D6        2.00876   0.00032   0.00000   0.01095   0.01161   2.02037
    D7        2.90652  -0.00047   0.00000  -0.01434  -0.01501   2.89151
    D8       -1.13218   0.00004   0.00000   0.00729   0.00922  -1.12296
    D9        0.00053   0.00005   0.00000   0.00028   0.00003   0.00055
   D10        3.13989   0.00008   0.00000   0.00068   0.00054   3.14044
   D11        0.00016  -0.00001   0.00000  -0.00013  -0.00013   0.00003
   D12        3.14085   0.00001   0.00000   0.00026   0.00038   3.14123
   D13       -3.13891  -0.00005   0.00000  -0.00060  -0.00073  -3.13964
   D14        0.00178  -0.00002   0.00000  -0.00021  -0.00021   0.00157
   D15       -0.00078  -0.00003   0.00000  -0.00007   0.00018  -0.00060
   D16       -3.14156  -0.00006   0.00000  -0.00042  -0.00028   3.14134
   D17       -0.53760  -0.00180   0.00000  -0.02780  -0.02680  -0.56441
   D18        1.74671   0.00092   0.00000   0.00780   0.00681   1.75351
   D19        0.29889   0.00208   0.00000   0.05814   0.05656   0.35545
   D20       -1.81499   0.00043   0.00000   0.00804   0.00549  -1.80950
   D21       -2.07264   0.00049   0.00000   0.01267   0.01521  -2.05742
   D22        2.09667  -0.00116   0.00000  -0.03743  -0.03586   2.06081
         Item               Value     Threshold  Converged?
 Maximum Force            0.011043     0.000450     NO 
 RMS     Force            0.002955     0.000300     NO 
 Maximum Displacement     2.635538     0.001800     NO 
 RMS     Displacement     0.671698     0.001200     NO 
 Predicted change in Energy=-4.943020D-03
 GradGradGradGradGradGradGradGradGradGradGradGradGradGradGradGradGradGrad

                          Input orientation:                          
 ---------------------------------------------------------------------
 Center     Atomic      Atomic             Coordinates (Angstroms)
 Number     Number       Type             X           Y           Z
 ---------------------------------------------------------------------
      1          7           0        1.336766    1.174621    0.006821
      2          7           0        1.427108   -0.141124   -0.011975
      3          6           0        2.736654   -0.374294   -0.124147
      4          6           0        3.394433    0.861485   -0.168238
      5          7           0        2.476142    1.825295   -0.082299
      6          1           0        3.123904   -1.380813   -0.164224
      7          1           0        4.444520    1.093166   -0.254097
      8          1           0        0.432341    1.659394    0.092726
      9          6           0       -2.037444   -2.850810    0.184804
     10          8           0       -1.378275   -3.805636    0.194720
     11          8           0       -2.753590   -1.931108    0.178535
     12          1           0       -1.895730    1.935746    0.054710
     13          8           0       -1.127100    2.518204    0.219231
     14          1           0       -1.352023    3.068727    0.976242
     15          1           0       -3.145765    0.001375   -0.184923
     16          8           0       -3.344673    0.942224   -0.287218
     17          1           0       -3.792561    1.030133   -1.135530
 ---------------------------------------------------------------------
                    Distance matrix (angstroms):
                    1          2          3          4          5
     1  N    0.000000
     2  N    1.318977   0.000000
     3  C    2.091883   1.334863   0.000000
     4  C    2.088705   2.213596   1.400631   0.000000
     5  N    1.315103   2.229848   2.215358   1.334006   0.000000
     6  H    3.123037   2.106923   1.079189   2.258562   3.271916
     7  H    3.119751   3.269078   2.255468   1.078764   2.107140
     8  H    1.029742   2.059706   3.081035   3.078757   2.057979
     9  C    5.255575   4.402754   5.387077   6.588707   6.504596
    10  O    5.675361   4.619691   5.367348   6.685245   6.829397
    11  O    5.138682   4.551766   5.714723   6.761435   6.444276
    12  H    3.321240   3.919067   5.179502   5.402736   4.375412
    13  O    2.814422   3.694519   4.838703   4.831057   3.681630
    14  H    3.428849   4.359276   5.457337   5.358226   4.161908
    15  H    4.637495   4.578361   5.894716   6.596534   5.911266
    16  O    4.696418   4.900949   6.224335   6.740640   5.890985
    17  H    5.256980   5.466184   6.754699   7.253756   6.406108
                    6          7          8          9         10
     6  H    0.000000
     7  H    2.805829   0.000000
     8  H    4.068586   4.066753   0.000000
     9  C    5.377939   7.600227   5.142981   0.000000
    10  O    5.126229   7.622640   5.758063   1.160300   0.000000
    11  O    5.913141   7.819603   4.800961   1.165657   2.324996
    12  H    6.020317   6.403442   2.344724   4.790420   5.766353
    13  O    5.781039   5.770418   1.784774   5.445753   6.328874
    14  H    6.413501   6.246318   2.439421   6.011414   6.918695
    15  H    6.420251   7.668718   3.953348   3.082213   4.214438
    16  O    6.874163   7.790726   3.863228   4.039649   5.161508
    17  H    7.388747   8.284347   4.444590   4.459309   5.566238
                   11         12         13         14         15
    11  O    0.000000
    12  H    3.962804   0.000000
    13  O    4.737458   0.978324   0.000000
    14  H    5.253483   1.558360   0.962668   0.000000
    15  H    2.005093   2.315556   3.251581   3.738243   0.000000
    16  O    2.970243   1.789815   2.767280   3.176319   0.967070
    17  H    3.402231   2.415528   3.339823   3.817286   1.542835
                   16         17
    16  O    0.000000
    17  H    0.963309   0.000000
 Stoichiometry    C3H7N3O4
 Framework group  C1[X(C3H7N3O4)]
 Deg. of freedom    45
 Full point group                 C1      NOp   1
 Largest Abelian subgroup         C1      NOp   1
 Largest concise Abelian subgroup C1      NOp   1
                         Standard orientation:                         
 ---------------------------------------------------------------------
 Center     Atomic      Atomic             Coordinates (Angstroms)
 Number     Number       Type             X           Y           Z
 ---------------------------------------------------------------------
      1          7           0        1.884211   -0.344537   -0.047165
      2          7           0        1.307554    0.840580    0.004474
      3          6           0        2.329052    1.693569    0.108440
      4          6           0        3.515766    0.949627    0.113632
      5          7           0        3.197940   -0.342041    0.012874
      6          1           0        2.164265    2.758314    0.170193
      7          1           0        4.543321    1.270825    0.182149
      8          1           0        1.339792   -1.214097   -0.135723
      9          6           0       -3.049711    1.465448   -0.085109
     10          8           0       -2.954151    2.621782   -0.077598
     11          8           0       -3.212236    0.311218   -0.094745
     12          1           0       -0.539754   -2.614773   -0.079659
     13          8           0        0.412996   -2.733678   -0.267401
     14          1           0        0.475451   -3.310160   -1.035839
     15          1           0       -2.581534   -1.565366    0.223127
     16          8           0       -2.283039   -2.481713    0.303343
     17          1           0       -2.608673   -2.795509    1.153906
 ---------------------------------------------------------------------
 Rotational constants (GHZ):           1.1048690           0.5153390           0.3542934
 Standard basis: 6-31+G(d,p) (6D, 7F)
 There are   225 symmetry adapted cartesian basis functions of A   symmetry.
 There are   225 symmetry adapted basis functions of A   symmetry.
   225 basis functions,   369 primitive gaussians,   225 cartesian basis functions
    39 alpha electrons       39 beta electrons
       nuclear repulsion energy       472.7340721687 Hartrees.
 NAtoms=   17 NActive=   17 NUniq=   17 SFac= 1.00D+00 NAtFMM=   60 NAOKFM=F Big=F
 Integral buffers will be    131072 words long.
 Raffenetti 2 integral format.
 Two-electron integral symmetry is turned on.
 ------------------------------------------------------------------------------
 Polarizable Continuum Model (PCM)
 =================================
 Model                : PCM.
 Atomic radii         : SMD-Coulomb.
 Polarization charges : Total charges.
 Charge compensation  : None.
 Solution method      : On-the-fly selection.
 Cavity type          : VdW (van der Waals Surface) (Alpha=1.000).
 Cavity algorithm     : GePol (No added spheres)
                        Default sphere list used, NSphG=   17.
                        Lebedev-Laikov grids with approx.  5.0 points / Ang**2.
                        Smoothing algorithm: York/Karplus (Gamma=1.0000).
                        Polarization charges: spherical gaussians, with
                                              point-specific exponents (IZeta= 3).
                        Self-potential: point-specific (ISelfS= 7).
                        Self-field    : sphere-specific E.n sum rule (ISelfD= 2).
 1st derivatives      : Analytical E(r).r(x)/FMM algorithm (CHGder, D1EAlg=3).
                        Cavity 1st derivative terms included.
 Solvent              : Water, Eps=  78.355300 Eps(inf)=   1.777849
 ------------------------------------------------------------------------------
 Spheres list:
 ISph  on   Nord     Re0    Alpha      Xe            Ye            Ze
    1   N      1    1.8900  1.000      1.884211     -0.344537     -0.047165
    2   N      2    1.8900  1.000      1.307554      0.840580      0.004474
    3   C      3    1.8500  1.000      2.329052      1.693569      0.108440
    4   C      4    1.8500  1.000      3.515766      0.949627      0.113632
    5   N      5    1.8900  1.000      3.197940     -0.342041      0.012874
    6   H      6    1.2000  1.000      2.164265      2.758314      0.170193
    7   H      7    1.2000  1.000      4.543321      1.270825      0.182149
    8   H      8    1.2000  1.000      1.339792     -1.214097     -0.135723
    9   C      9    1.8500  1.000     -3.049711      1.465448     -0.085109
   10   O     10    1.5200  1.000     -2.954151      2.621782     -0.077598
   11   O     11    1.5200  1.000     -3.212236      0.311218     -0.094745
   12   H     12    1.2000  1.000     -0.539754     -2.614773     -0.079659
   13   O     13    1.5200  1.000      0.412996     -2.733678     -0.267401
   14   H     14    1.2000  1.000      0.475451     -3.310160     -1.035839
   15   H     15    1.2000  1.000     -2.581534     -1.565366      0.223127
   16   O     16    1.5200  1.000     -2.283039     -2.481713      0.303343
   17   H     17    1.2000  1.000     -2.608673     -2.795509      1.153906
 ------------------------------------------------------------------------------
 ------------------------------------------------------------------------------
 Atomic radii for non-electrostatic terms: SMD-CDS.
 ------------------------------------------------------------------------------
 Nuclear repulsion after PCM non-electrostatic terms =      472.7461804657 Hartrees.
 One-electron integrals computed using PRISM.
 NBasis=   225 RedAO= T EigKep=  5.68D-05  NBF=   225
 NBsUse=   225 1.00D-06 EigRej= -1.00D+00 NBFU=   225
 Initial guess from the checkpoint file:  "/scratch/gongke2021/RC/Gau-31643.chk"
 B after Tr=     0.000000    0.000000   -0.000000
         Rot=    0.959297   -0.007558   -0.008651   -0.282164 Ang= -32.81 deg.
 ExpMin= 4.38D-02 ExpMax= 5.48D+03 ExpMxC= 8.25D+02 IAcc=2 IRadAn=         4 AccDes= 0.00D+00
 Harris functional with IExCor= 1009 and IRadAn=       4 diagonalized for initial guess.
 HarFok:  IExCor= 1009 AccDes= 0.00D+00 IRadAn=         4 IDoV= 1 UseB2=F ITyADJ=14
 ICtDFT=  3500011 ScaDFX=  1.000000  1.000000  1.000000  1.000000
 FoFCou: FMM=F IPFlag=           0 FMFlag=      100000 FMFlg1=           0
         NFxFlg=           0 DoJE=T BraDBF=F KetDBF=T FulRan=T
         wScrn=  0.000000 ICntrl=       500 IOpCl=  0 I1Cent=   200000004 NGrid=           0
         NMat0=    1 NMatS0=      1 NMatT0=    0 NMatD0=    1 NMtDS0=    0 NMtDT0=    0
 Petite list used in FoFCou.
 Requested convergence on RMS density matrix=1.00D-08 within 128 cycles.
 Requested convergence on MAX density matrix=1.00D-06.
 Requested convergence on             energy=1.00D-06.
 No special actions if energy rises.
 Inv3:  Mode=1 IEnd=     7394700.
 Iteration    1 A*A^-1 deviation from unit magnitude is 3.55D-15 for    959.
 Iteration    1 A*A^-1 deviation from orthogonality  is 2.07D-15 for   1461   1162.
 Iteration    1 A^-1*A deviation from unit magnitude is 3.11D-15 for    206.
 Iteration    1 A^-1*A deviation from orthogonality  is 1.68D-15 for    731    249.
 Error on total polarization charges =  0.04688
 SCF Done:  E(RM062X) =  -583.504800764     A.U. after   14 cycles
            NFock= 14  Conv=0.60D-08     -V/T= 2.0084
 SMD-CDS (non-electrostatic) energy       (kcal/mol) =       7.60
 (included in total energy above)
 D1PCM: PCM CHGder 1st derivatives, ID1Alg=3 FixD1E=F DoIter=F DoCFld=F I1PDM=0.
 Calling FoFJK, ICntrl=      2127 FMM=F ISym2X=0 I1Cent= 0 IOpClX= 0 NMat=1 NMatS=1 NMatT=0.
 ***** Axes restored to original set *****
 -------------------------------------------------------------------
 Center     Atomic                   Forces (Hartrees/Bohr)
 Number     Number              X              Y              Z
 -------------------------------------------------------------------
      1        7          -0.000263877   -0.003004081   -0.000046700
      2        7          -0.000962385    0.000340445    0.000137254
      3        6          -0.000167994    0.001440695    0.000069906
      4        6           0.000583296   -0.001740319   -0.000045669
      5        7           0.001080232    0.001876170   -0.000160878
      6        1           0.000636334    0.000438823   -0.000127903
      7        1           0.000236382   -0.000377842   -0.000022900
      8        1          -0.001440597    0.001210374    0.000791175
      9        6          -0.009666411   -0.000748305    0.000196674
     10        8           0.004702438    0.000834137   -0.000156664
     11        8           0.005233096   -0.001276109    0.000253715
     12        1          -0.002113165    0.001052445    0.000115183
     13        8           0.003073037   -0.001259851   -0.003749976
     14        1          -0.001051040    0.000569043    0.002582811
     15        1          -0.000586850    0.000597700   -0.001189309
     16        8           0.001256500    0.000360046    0.003992993
     17        1          -0.000548995   -0.000313372   -0.002639711
 -------------------------------------------------------------------
 Cartesian Forces:  Max     0.009666411 RMS     0.002156584

 GradGradGradGradGradGradGradGradGradGradGradGradGradGradGradGradGradGrad
 Berny optimization.
 Using GEDIIS/GDIIS optimizer.
 FormGI is forming the generalized inverse of G from B-inverse, IUseBI=4.
 Internal  Forces:  Max     0.009529787 RMS     0.001507440
 Search for a local minimum.
 Step number   2 out of a maximum of   75
 All quantities printed in internal units (Hartrees-Bohrs-Radians)
 Mixed Optimization -- RFO/linear search
 Update second derivatives using D2CorX and points    2    1
 DE=  3.56D-03 DEPred=-4.94D-03 R=-7.20D-01
 Trust test=-7.20D-01 RLast= 3.10D-01 DXMaxT set to 1.50D-01
 ITU= -1  0
 Use linear search instead of GDIIS.
     Eigenvalues ---    0.00230   0.00230   0.00230   0.00230   0.00230
     Eigenvalues ---    0.00230   0.00745   0.01395   0.01569   0.02065
     Eigenvalues ---    0.02165   0.02260   0.02320   0.02442   0.03127
     Eigenvalues ---    0.03313   0.04252   0.04785   0.05992   0.06279
     Eigenvalues ---    0.06788   0.13384   0.13705   0.15794   0.16000
     Eigenvalues ---    0.16000   0.16000   0.16000   0.17264   0.22614
     Eigenvalues ---    0.23376   0.36104   0.36158   0.41871   0.42881
     Eigenvalues ---    0.51762   0.53127   0.54034   0.54624   0.55111
     Eigenvalues ---    0.56293   0.59516   0.61938   1.23693   1.27721
 RFO step:  Lambda=-3.32550380D-03 EMin= 2.29648852D-03
 Quartic linear search produced a step of -0.85303.
 Maximum step size (   0.150) exceeded in Quadratic search.
    -- Step size scaled by   0.353
 Iteration  1 RMS(Cart)=  0.34998888 RMS(Int)=  0.01969042
 Iteration  2 RMS(Cart)=  0.23213274 RMS(Int)=  0.00357861
 Iteration  3 RMS(Cart)=  0.00706631 RMS(Int)=  0.00023520
 Iteration  4 RMS(Cart)=  0.00000506 RMS(Int)=  0.00023520
 Iteration  5 RMS(Cart)=  0.00000000 RMS(Int)=  0.00023520
 Variable       Old X    -DE/DX   Delta X   Delta X   Delta X     New X
                                 (Linear)    (Quad)   (Total)
    R1        2.49251  -0.00075   0.00099  -0.00178  -0.00079   2.49172
    R2        2.48519   0.00215  -0.00126   0.00239   0.00113   2.48631
    R3        1.94593   0.00151  -0.00151   0.00281   0.00130   1.94723
    R4        2.52253   0.00054  -0.00103   0.00182   0.00079   2.52331
    R5        2.64681  -0.00125   0.00184  -0.00333  -0.00149   2.64532
    R6        2.03937  -0.00018  -0.00012   0.00019   0.00006   2.03943
    R7        2.52091   0.00093  -0.00103   0.00186   0.00084   2.52174
    R8        2.03857   0.00015  -0.00020   0.00037   0.00017   2.03874
    R9        3.37273  -0.00039   0.00144  -0.00260  -0.00115   3.37158
   R10        2.19265   0.00198  -0.00099   0.00181   0.00082   2.19347
   R11        2.20277  -0.00312   0.00072  -0.00139  -0.00067   2.20210
   R12        3.78908   0.00125  -0.01019   0.01683   0.00665   3.79572
   R13        1.84876   0.00095  -0.00208   0.00370   0.00163   1.85039
   R14        3.38226  -0.00010  -0.00613   0.00953   0.00339   3.38565
   R15        1.81918   0.00260  -0.00212   0.00392   0.00180   1.82098
   R16        1.82750   0.00041  -0.00092   0.00164   0.00071   1.82821
   R17        1.82039   0.00255  -0.00196   0.00365   0.00169   1.82208
    A1        2.01889   0.00010   0.00274  -0.00458  -0.00184   2.01705
    A2        2.13054  -0.00024  -0.00268   0.00441   0.00173   2.13227
    A3        2.13373   0.00014  -0.00006   0.00016   0.00010   2.13383
    A4        1.81588  -0.00042  -0.00178   0.00289   0.00110   1.81699
    A5        1.88520   0.00106  -0.00006   0.00031   0.00025   1.88546
    A6        2.11538   0.00025  -0.00224   0.00391   0.00167   2.11706
    A7        2.28260  -0.00130   0.00229  -0.00422  -0.00193   2.28067
    A8        1.88825  -0.00018   0.00097  -0.00171  -0.00074   1.88751
    A9        2.27725  -0.00034   0.00087  -0.00156  -0.00069   2.27656
   A10        2.11769   0.00052  -0.00184   0.00327   0.00143   2.11912
   A11        1.81655  -0.00056  -0.00187   0.00309   0.00122   1.81777
   A12        2.64997  -0.00104  -0.00709   0.01147   0.00438   2.65435
   A13        1.96933  -0.00015  -0.01150   0.01898   0.00763   1.97696
   A14        2.13538   0.00024   0.00448  -0.00925  -0.00396   2.13142
   A15        1.86413  -0.00053   0.00925  -0.01519  -0.00619   1.85794
   A16        1.93192  -0.00002  -0.01637   0.02692   0.01016   1.94209
   A17        2.08745  -0.00018   0.00389  -0.00793  -0.00459   2.08286
   A18        1.85205  -0.00031   0.01019  -0.01710  -0.00736   1.84470
   A19        3.15292  -0.00090  -0.10535  -0.03776  -0.14328   3.00964
   A20        3.19904  -0.00953   0.01093  -0.02762  -0.01669   3.18235
   A21        3.18592  -0.00248  -0.20888  -0.08316  -0.29183   2.89409
   A22        3.14593  -0.00101  -0.09874   0.10430   0.00547   3.15139
   A23        3.15451   0.00046  -0.00299   0.00414   0.00111   3.15562
   A24        3.14289  -0.00007  -0.00067   0.00094   0.00027   3.14316
   A25        3.17108  -0.00044  -0.00030  -0.00267  -0.00259   3.16848
   A26        3.21827   0.00008  -0.00422   0.00324  -0.00111   3.21716
    D1       -0.00102  -0.00008  -0.00008  -0.00047  -0.00051  -0.00153
    D2       -3.13511   0.00001   0.00064  -0.00024   0.00035  -3.13475
    D3        0.00104   0.00007   0.00015   0.00034   0.00045   0.00149
    D4        3.13511  -0.00003  -0.00059   0.00013  -0.00040   3.13470
    D5       -0.24834   0.00054   0.01076   0.01221   0.02258  -0.22577
    D6        2.02037  -0.00032  -0.00991  -0.00768  -0.01727   2.00310
    D7        2.89151   0.00025   0.01280   0.00821   0.02071   2.91222
    D8       -1.12296  -0.00060  -0.00787  -0.01168  -0.01914  -1.14210
    D9        0.00055   0.00006  -0.00002   0.00039   0.00034   0.00090
   D10        3.14044   0.00007  -0.00046   0.00089   0.00041   3.14085
   D11        0.00003  -0.00002   0.00011  -0.00021  -0.00009  -0.00007
   D12        3.14123  -0.00001  -0.00033   0.00030  -0.00002   3.14121
   D13       -3.13964  -0.00004   0.00062  -0.00078  -0.00018  -3.13981
   D14        0.00157  -0.00002   0.00018  -0.00028  -0.00010   0.00147
   D15       -0.00060  -0.00002  -0.00015  -0.00007  -0.00020  -0.00080
   D16        3.14134  -0.00004   0.00024  -0.00052  -0.00027   3.14107
   D17       -0.56441   0.00039   0.02286  -0.00944   0.01306  -0.55134
   D18        1.75351  -0.00033  -0.00581   0.01491   0.00947   1.76298
   D19        0.35545  -0.00102  -0.04825  -0.02730  -0.07603   0.27942
   D20       -1.80950   0.00008  -0.00468  -0.00277  -0.00803  -1.81753
   D21       -2.05742  -0.00013  -0.01298  -0.00292  -0.01530  -2.07272
   D22        2.06081   0.00097   0.03059   0.02162   0.05269   2.11350
         Item               Value     Threshold  Converged?
 Maximum Force            0.009530     0.000450     NO 
 RMS     Force            0.001507     0.000300     NO 
 Maximum Displacement     2.177306     0.001800     NO 
 RMS     Displacement     0.579025     0.001200     NO 
 Predicted change in Energy=-4.672459D-03
 GradGradGradGradGradGradGradGradGradGradGradGradGradGradGradGradGradGrad

                          Input orientation:                          
 ---------------------------------------------------------------------
 Center     Atomic      Atomic             Coordinates (Angstroms)
 Number     Number       Type             X           Y           Z
 ---------------------------------------------------------------------
      1          7           0        1.074640    1.158995    0.025217
      2          7           0        0.904596   -0.148217   -0.004451
      3          6           0        2.142730   -0.634921   -0.118967
      4          6           0        3.031699    0.445887   -0.152739
      5          7           0        2.321192    1.571517   -0.058436
      6          1           0        2.325153   -1.697487   -0.167888
      7          1           0        4.107092    0.465053   -0.236921
      8          1           0        0.283701    1.813224    0.115702
      9          6           0       -1.091854   -2.500526    0.121408
     10          8           0       -0.226094   -3.273674    0.123599
     11          8           0       -1.991894   -1.760357    0.122094
     12          1           0       -2.030072    2.223162    0.085932
     13          8           0       -1.225032    2.756195    0.248992
     14          1           0       -1.415928    3.312294    1.012458
     15          1           0       -2.801934    0.049223   -0.200037
     16          8           0       -3.206859    0.923839   -0.283924
     17          1           0       -3.656427    0.922378   -1.136902
 ---------------------------------------------------------------------
                    Distance matrix (angstroms):
                    1          2          3          4          5
     1  N    0.000000
     2  N    1.318559   0.000000
     3  C    2.092783   1.335279   0.000000
     4  C    2.090520   2.213485   1.399841   0.000000
     5  N    1.315699   2.228709   2.214471   1.334450   0.000000
     6  H    3.124190   2.108301   1.079221   2.256877   3.270839
     7  H    3.121865   3.268964   2.254457   1.078853   2.108450
     8  H    1.030431   2.060873   3.082932   3.081098   2.059154
     9  C    4.253826   3.087881   3.741763   5.075450   5.316273
    10  O    4.620621   3.326160   3.554319   4.952244   5.477014
    11  O    4.235048   3.317328   4.291833   5.493590   5.453135
    12  H    3.282586   3.774107   5.061906   5.370027   4.402156
    13  O    2.808846   3.610424   4.793421   4.859904   3.751490
    14  H    3.437188   4.288830   5.433661   5.418058   4.259481
    15  H    4.038583   3.716934   4.992426   5.847294   5.346386
    16  O    4.299081   4.258107   5.574500   6.258215   5.570429
    17  H    4.877448   4.819912   6.090286   6.776920   6.108715
                    6          7          8          9         10
     6  H    0.000000
     7  H    2.802972   0.000000
     8  H    4.071001   4.069427   0.000000
     9  C    3.522002   5.996007   4.527761   0.000000
    10  O    3.013004   5.734506   5.112385   1.160733   0.000000
    11  O    4.327233   6.502229   4.236608   1.165300   2.325549
    12  H    5.865484   6.392180   2.349995   4.816092   5.785409
    13  O    5.710770   5.823830   1.784163   5.259956   6.113340
    14  H    6.362925   6.338097   2.437236   5.889641   6.751351
    15  H    5.416554   6.921627   3.568267   3.086895   4.216792
    16  O    6.122743   7.328478   3.624185   4.045222   5.164315
    17  H    6.601665   7.828879   4.229330   4.458324   5.564431
                   11         12         13         14         15
    11  O    0.000000
    12  H    3.983866   0.000000
    13  O    4.582949   0.979184   0.000000
    14  H    5.182303   1.556223   0.963621   0.000000
    15  H    2.008610   2.324555   3.164797   3.746836   0.000000
    16  O    2.974206   1.791609   2.751212   3.254651   0.967448
    17  H    3.398942   2.415035   3.345933   3.918071   1.539569
                   16         17
    16  O    0.000000
    17  H    0.964201   0.000000
 Stoichiometry    C3H7N3O4
 Framework group  C1[X(C3H7N3O4)]
 Deg. of freedom    45
 Full point group                 C1      NOp   1
 Largest Abelian subgroup         C1      NOp   1
 Largest concise Abelian subgroup C1      NOp   1
                         Standard orientation:                         
 ---------------------------------------------------------------------
 Center     Atomic      Atomic             Coordinates (Angstroms)
 Number     Number       Type             X           Y           Z
 ---------------------------------------------------------------------
      1          7           0        1.420321   -0.764405   -0.033811
      2          7           0        0.837486    0.417844    0.000663
      3          6           0        1.852746    1.278071    0.111235
      4          6           0        3.043225    0.542127    0.137735
      5          7           0        2.733718   -0.752477    0.043071
      6          1           0        1.682585    2.342552    0.162650
      7          1           0        4.067633    0.871081    0.217120
      8          1           0        0.882512   -1.638832   -0.122841
      9          6           0       -1.812145    1.999746   -0.109099
     10          8           0       -1.242398    3.011021   -0.112704
     11          8           0       -2.425000    1.008619   -0.108118
     12          1           0       -1.174804   -2.773923   -0.084152
     13          8           0       -0.241635   -3.018231   -0.252411
     14          1           0       -0.246707   -3.605023   -1.016750
     15          1           0       -2.605729   -0.966071    0.211960
     16          8           0       -2.706146   -1.924710    0.294915
     17          1           0       -3.127692   -2.069774    1.149865
 ---------------------------------------------------------------------
 Rotational constants (GHZ):           1.0240488           0.8169968           0.4592763
 Standard basis: 6-31+G(d,p) (6D, 7F)
 There are   225 symmetry adapted cartesian basis functions of A   symmetry.
 There are   225 symmetry adapted basis functions of A   symmetry.
   225 basis functions,   369 primitive gaussians,   225 cartesian basis functions
    39 alpha electrons       39 beta electrons
       nuclear repulsion energy       500.5686882790 Hartrees.
 NAtoms=   17 NActive=   17 NUniq=   17 SFac= 1.00D+00 NAtFMM=   60 NAOKFM=F Big=F
 Integral buffers will be    131072 words long.
 Raffenetti 2 integral format.
 Two-electron integral symmetry is turned on.
 ------------------------------------------------------------------------------
 Polarizable Continuum Model (PCM)
 =================================
 Model                : PCM.
 Atomic radii         : SMD-Coulomb.
 Polarization charges : Total charges.
 Charge compensation  : None.
 Solution method      : On-the-fly selection.
 Cavity type          : VdW (van der Waals Surface) (Alpha=1.000).
 Cavity algorithm     : GePol (No added spheres)
                        Default sphere list used, NSphG=   17.
                        Lebedev-Laikov grids with approx.  5.0 points / Ang**2.
                        Smoothing algorithm: York/Karplus (Gamma=1.0000).
                        Polarization charges: spherical gaussians, with
                                              point-specific exponents (IZeta= 3).
                        Self-potential: point-specific (ISelfS= 7).
                        Self-field    : sphere-specific E.n sum rule (ISelfD= 2).
 1st derivatives      : Analytical E(r).r(x)/FMM algorithm (CHGder, D1EAlg=3).
                        Cavity 1st derivative terms included.
 Solvent              : Water, Eps=  78.355300 Eps(inf)=   1.777849
 ------------------------------------------------------------------------------
 Spheres list:
 ISph  on   Nord     Re0    Alpha      Xe            Ye            Ze
    1   N      1    1.8900  1.000      1.420321     -0.764405     -0.033811
    2   N      2    1.8900  1.000      0.837486      0.417844      0.000663
    3   C      3    1.8500  1.000      1.852746      1.278071      0.111235
    4   C      4    1.8500  1.000      3.043225      0.542127      0.137735
    5   N      5    1.8900  1.000      2.733718     -0.752477      0.043071
    6   H      6    1.2000  1.000      1.682585      2.342552      0.162650
    7   H      7    1.2000  1.000      4.067633      0.871081      0.217120
    8   H      8    1.2000  1.000      0.882512     -1.638832     -0.122841
    9   C      9    1.8500  1.000     -1.812145      1.999746     -0.109099
   10   O     10    1.5200  1.000     -1.242398      3.011021     -0.112704
   11   O     11    1.5200  1.000     -2.425000      1.008619     -0.108118
   12   H     12    1.2000  1.000     -1.174804     -2.773923     -0.084152
   13   O     13    1.5200  1.000     -0.241635     -3.018231     -0.252411
   14   H     14    1.2000  1.000     -0.246707     -3.605023     -1.016750
   15   H     15    1.2000  1.000     -2.605729     -0.966071      0.211960
   16   O     16    1.5200  1.000     -2.706146     -1.924710      0.294915
   17   H     17    1.2000  1.000     -3.127692     -2.069774      1.149865
 ------------------------------------------------------------------------------
 ------------------------------------------------------------------------------
 Atomic radii for non-electrostatic terms: SMD-CDS.
 ------------------------------------------------------------------------------
 Nuclear repulsion after PCM non-electrostatic terms =      500.5800560013 Hartrees.
 One-electron integrals computed using PRISM.
 NBasis=   225 RedAO= T EigKep=  3.24D-05  NBF=   225
 NBsUse=   225 1.00D-06 EigRej= -1.00D+00 NBFU=   225
 Lowest energy guess from the checkpoint file:  "/scratch/gongke2021/RC/Gau-31643.chk"
 B after Tr=     0.000000    0.000000   -0.000000
         Rot=    0.985816   -0.001241   -0.002375   -0.167810 Ang= -19.32 deg.
 B after Tr=    -0.000000   -0.000000   -0.000000
         Rot=    0.992787    0.005281    0.007032    0.119573 Ang=  13.77 deg.
 Requested convergence on RMS density matrix=1.00D-08 within 128 cycles.
 Requested convergence on MAX density matrix=1.00D-06.
 Requested convergence on             energy=1.00D-06.
 No special actions if energy rises.
 Inv3:  Mode=1 IEnd=     7004352.
 Iteration    1 A*A^-1 deviation from unit magnitude is 2.66D-15 for     22.
 Iteration    1 A*A^-1 deviation from orthogonality  is 2.03D-15 for    641     33.
 Iteration    1 A^-1*A deviation from unit magnitude is 2.89D-15 for    248.
 Iteration    1 A^-1*A deviation from orthogonality  is 1.78D-15 for    761    212.
 Error on total polarization charges =  0.04584
 SCF Done:  E(RM062X) =  -583.507528986     A.U. after   12 cycles
            NFock= 12  Conv=0.47D-08     -V/T= 2.0084
 SMD-CDS (non-electrostatic) energy       (kcal/mol) =       7.13
 (included in total energy above)
 D1PCM: PCM CHGder 1st derivatives, ID1Alg=3 FixD1E=F DoIter=F DoCFld=F I1PDM=0.
 Calling FoFJK, ICntrl=      2127 FMM=F ISym2X=0 I1Cent= 0 IOpClX= 0 NMat=1 NMatS=1 NMatT=0.
 ***** Axes restored to original set *****
 -------------------------------------------------------------------
 Center     Atomic                   Forces (Hartrees/Bohr)
 Number     Number              X              Y              Z
 -------------------------------------------------------------------
      1        7           0.000894574   -0.001036824   -0.000076846
      2        7          -0.001922658   -0.000964292    0.000178119
      3        6          -0.000442888    0.000622725    0.000132075
      4        6           0.000062431   -0.000944447   -0.000039125
      5        7           0.001438283    0.001368245   -0.000207222
      6        1           0.000455204   -0.000151600   -0.000098293
      7        1           0.000065151   -0.000287866   -0.000006138
      8        1          -0.002168532   -0.000661200    0.000682042
      9        6          -0.004537300    0.001891088   -0.000006286
     10        8           0.003063822    0.000966380   -0.000142124
     11        8           0.002968032   -0.001897525    0.000286641
     12        1           0.001529516   -0.001708218   -0.000142699
     13        8          -0.000106305    0.001105679   -0.002274692
     14        1          -0.000013829    0.000696208    0.001822244
     15        1          -0.000266573    0.000668361   -0.000636943
     16        8          -0.000575212    0.000290956    0.002342285
     17        1          -0.000443715    0.000042329   -0.001813036
 -------------------------------------------------------------------
 Cartesian Forces:  Max     0.004537300 RMS     0.001333965

 GradGradGradGradGradGradGradGradGradGradGradGradGradGradGradGradGradGrad
 Berny optimization.
 Using GEDIIS/GDIIS optimizer.
 FormGI is forming the generalized inverse of G from B-inverse, IUseBI=4.
 Internal  Forces:  Max     0.014593123 RMS     0.004057645
 Search for a local minimum.
 Step number   3 out of a maximum of   75
 All quantities printed in internal units (Hartrees-Bohrs-Radians)
 Mixed Optimization -- RFO/linear search
 Update second derivatives using D2CorX and points    2    3    1
 DE=  8.31D-04 DEPred=-4.67D-03 R=-1.78D-01
 Trust test=-1.78D-01 RLast= 1.50D-01 DXMaxT set to 7.50D-02
 ITU= -1 -1  0
 Use linear search instead of GDIIS.
 Energy rises -- skip Quadratic/GDIIS search.
 Quartic linear search produced a step of -0.79145.
 Iteration  1 RMS(Cart)=  0.10148865 RMS(Int)=  0.00194451
 Iteration  2 RMS(Cart)=  0.00382921 RMS(Int)=  0.00002175
 Iteration  3 RMS(Cart)=  0.00000320 RMS(Int)=  0.00002174
 Iteration  4 RMS(Cart)=  0.00000000 RMS(Int)=  0.00002174
 Variable       Old X    -DE/DX   Delta X   Delta X   Delta X     New X
                                 (Linear)    (Quad)   (Total)
    R1        2.49172   0.00081   0.00155   0.00000   0.00155   2.49326
    R2        2.48631   0.00147  -0.00206   0.00000  -0.00206   2.48425
    R3        1.94723   0.00133  -0.00244   0.00000  -0.00243   1.94480
    R4        2.52331  -0.00005  -0.00158   0.00000  -0.00158   2.52173
    R5        2.64532   0.00000   0.00289   0.00000   0.00289   2.64821
    R6        2.03943   0.00023  -0.00016   0.00000  -0.00016   2.03927
    R7        2.52174   0.00100  -0.00162   0.00000  -0.00162   2.52013
    R8        2.03874   0.00006  -0.00032   0.00000  -0.00032   2.03842
    R9        3.37158  -0.00027   0.00225   0.00000   0.00225   3.37383
   R10        2.19347   0.00164  -0.00157   0.00000  -0.00157   2.19190
   R11        2.20210  -0.00296   0.00120   0.00000   0.00120   2.20330
   R12        3.79572  -0.00023  -0.01471   0.00000  -0.01471   3.78101
   R13        1.85039  -0.00163  -0.00322   0.00000  -0.00322   1.84717
   R14        3.38565  -0.00157  -0.00837   0.00000  -0.00837   3.37728
   R15        1.82098   0.00185  -0.00339   0.00000  -0.00339   1.81759
   R16        1.82821  -0.00105  -0.00142   0.00000  -0.00142   1.82679
   R17        1.82208   0.00181  -0.00316   0.00000  -0.00316   1.81892
    A1        2.01705   0.00065   0.00400   0.00000   0.00400   2.02105
    A2        2.13227  -0.00313  -0.00386   0.00000  -0.00386   2.12841
    A3        2.13383   0.00248  -0.00014   0.00000  -0.00014   2.13370
    A4        1.81699  -0.00057  -0.00253   0.00000  -0.00253   1.81446
    A5        1.88546   0.00059  -0.00025   0.00000  -0.00025   1.88520
    A6        2.11706   0.00014  -0.00340   0.00000  -0.00340   2.11365
    A7        2.28067  -0.00073   0.00365   0.00000   0.00365   2.28433
    A8        1.88751   0.00045   0.00149   0.00000   0.00149   1.88900
    A9        2.27656  -0.00053   0.00135   0.00000   0.00135   2.27791
   A10        2.11912   0.00007  -0.00284   0.00000  -0.00284   2.11628
   A11        1.81777  -0.00113  -0.00270   0.00000  -0.00270   1.81507
   A12        2.65435  -0.00863  -0.01004   0.00000  -0.01004   2.64430
   A13        1.97696  -0.01138  -0.01670   0.00000  -0.01671   1.96025
   A14        2.13142   0.00377   0.00728   0.00000   0.00728   2.13871
   A15        1.85794   0.00523   0.01348   0.00000   0.01348   1.87142
   A16        1.94209  -0.01419  -0.02324   0.00000  -0.02326   1.91883
   A17        2.08286   0.00403   0.00724   0.00000   0.00716   2.09002
   A18        1.84470   0.00532   0.01527   0.00000   0.01529   1.85998
   A19        3.00964  -0.00639   0.01566   0.00000   0.01566   3.02530
   A20        3.18235  -0.00606   0.02335   0.00000   0.02335   3.20570
   A21        2.89409  -0.01320   0.03717   0.00000   0.03718   2.93127
   A22        3.15139  -0.01459  -0.09594   0.00000  -0.09596   3.05543
   A23        3.15562   0.00067  -0.00365   0.00000  -0.00364   3.15197
   A24        3.14316  -0.00017  -0.00083   0.00000  -0.00083   3.14233
[...]
   xx         0.115075D+03      0.170523D+02      0.189733D+02
   yx         0.197146D+02      0.292140D+01      0.325050D+01
   yy         0.751818D+02      0.111408D+02      0.123958D+02
   zx         0.143876D+01      0.213202D+00      0.237220D+00
   zy         0.467406D+01      0.692624D+00      0.770648D+00
   zz         0.977727D+02      0.144884D+02      0.161205D+02

 ----------------------------------------------------------------------
 1\1\GINC-NODE4\Freq\RM062X\6-31+G(d,p)\C3H7N3O4\GONGKE2021\11-Jul-2023
 \0\\#N Geom=AllCheck Guess=TCheck SCRF=Check GenChk RM062X/6-31+G(d,p)
  Freq\\test\\0,1\N,0.9786602991,1.1283871979,0.0583239135\N,0.80421103
 78,-0.1764970812,-0.0050087027\C,2.0329421744,-0.6601499735,-0.2059128
 137\C,2.9205796871,0.419828985,-0.2556280976\N,2.2203743544,1.54424935
 6,-0.0845781406\H,2.2151842361,-1.7197919726,-0.3018713927\H,3.9895753
 783,0.4371369828,-0.4011618472\H,0.1857735187,1.7763346216,0.208652138
 7\C,-1.0180414007,-2.2668388176,0.3560967625\O,-0.1525701444,-2.978107
 0658,0.0479720323\O,-1.9129378277,-1.5923243211,0.6734355351\H,-1.9789
 200303,2.1308876083,0.09367869\O,-1.2766564483,2.749298908,0.389414628
 7\H,-1.4660603934,2.9395026904,1.3174553827\H,-2.730257069,0.033942886
 2,-0.3504567002\O,-3.1127168248,0.9027431739,-0.5405833639\H,-3.154432
 5474,0.957982822,-1.504690025\\Version=ES64L-G16RevA.03\State=1-A\HF=-
 583.5095335\RMSD=2.705e-09\RMSF=8.414e-06\ZeroPoint=0.1212895\Thermal=
 0.1354232\Dipole=-0.6869399,-1.0721936,-0.176638\DipoleDeriv=-0.625593
 4,0.8062477,0.1208969,0.8181112,-0.2476375,-0.1218134,0.1319521,-0.120
 7572,-0.144687,-0.475657,-0.3676151,0.0052334,-0.6062818,-0.1428266,0.
 0967108,-0.0064792,0.0694834,-0.2553078,-0.1030303,0.2824312,0.0168552
 ,-0.0093946,0.2322165,0.0247653,-0.0026238,-0.0202183,-0.1162371,0.174
 1428,0.0324438,-0.0398251,0.3347621,-0.0497617,-0.0402086,-0.0190027,0
 .0014152,-0.1209908,0.0481997,-0.4723411,-0.0738848,-0.2280035,-0.5783
 951,0.0129229,-0.0603962,0.0423614,-0.2507743,0.1518099,-0.0158926,0.0
 085405,0.0207549,0.05705,-0.0137292,0.0108967,-0.0069103,0.2226523,0.0
 499373,0.0018952,0.0239792,-0.0360758,0.1423475,-0.00069,0.020907,-0.0
 057462,0.2214498,1.0096807,-0.5460966,-0.1152034,-0.5491364,0.6525594,
 0.0889909,-0.1162059,0.087764,0.4128118,2.5993092,-1.2513013,-0.615011
 2,-1.2160052,1.9516849,0.4462428,-0.6541133,0.4767417,0.9254649,-1.219
 7693,0.6617752,0.288449,0.633137,-1.0047016,-0.2327385,0.3030974,-0.24
 81239,-0.4543943,-1.3744411,0.6837519,0.3110821,0.701672,-0.9845778,-0
 .2064214,0.309453,-0.1908472,-0.4849209,0.64581,0.2217063,0.1803186,0.
 2406965,0.6937213,0.1573975,0.2023775,0.1566533,0.4964115,-1.2046212,0
 .1298323,-0.1200007,0.1313627,-1.1419411,-0.1222566,-0.1023328,-0.1214
 501,-0.8094825,0.3793013,-0.0077288,0.0629138,-0.0329536,0.4432178,0.0
 133713,0.0253983,0.0094712,0.3574363,0.4873649,-0.0326288,0.0218955,-0
 .0625466,0.506832,-0.0631127,0.0608865,-0.1244312,0.4117686,-0.9958426
 ,-0.1452273,-0.0990146,-0.1515346,-0.9255426,0.0150576,-0.1238564,0.02
 48691,-0.7688968,0.4533988,0.0187479,0.0227757,0.0114356,0.3957545,-0.
 0544889,0.0200419,-0.0302748,0.3576963\Polar=112.4721264,-11.5561225,1
 06.9901897,-8.1915742,6.3074602,68.5668856\Quadrupole=1.6264841,-5.740
 9317,4.1144476,-3.0207606,2.32873,2.8082831\PG=C01 [X(C3H7N3O4)]\NImag
 =0\\0.83734298,-0.15977685,0.78300203,-0.10793436,0.06489099,0.1439113
 4,-0.11419102,0.00235901,0.00520484,0.59983902,-0.06531668,-0.33028578
 ,-0.00779149,0.00086212,0.54913760,0.00082216,-0.01733069,-0.07854287,
 -0.06797522,0.02899601,0.12182852,-0.04904060,0.08560308,0.01446060,-0
 .34587489,0.08200346,0.04257345,0.61148507,0.02420449,-0.08295687,-0.0
 0987418,0.07532495,-0.14252407,-0.01495569,-0.06029914,0.90596599,0.01
 037242,-0.01816808,0.01145252,0.04215959,-0.01584348,-0.08191244,-0.06
 873720,0.05949951,0.15410075,-0.09096069,0.01094355,0.01523414,-0.0729
 7532,0.02084623,0.01411674,-0.20150493,-0.12389352,0.00933216,0.901505
 28,0.07281276,-0.02824061,-0.01293114,-0.07623653,0.04149499,0.0119145
 9,-0.07976906,-0.24237342,-0.00031202,0.00064447,0.60443036,0.01932727
 ,-0.00439305,0.01132591,0.00775137,-0.00148070,0.01866923,0.01222077,0
 .00583065,-0.07472251,-0.10423164,0.03093915,0.15767267,-0.31010501,-0
 .10429672,0.02499771,-0.07381721,-0.06099299,0.01062103,0.04818361,0.0
 4425944,-0.00094139,-0.17747431,0.11395841,0.02158943,0.54019942,-0.03
 625199,-0.13480306,0.00134457,-0.01804956,-0.08886884,-0.00563461,-0.0
 5289602,-0.07971049,0.00055153,0.10762238,-0.31466297,-0.03073173,-0.0
 1088120,0.59869284,0.02962908,0.01063554,-0.08033250,0.01346136,0.0001
 5446,0.03126434,-0.00734004,-0.01270999,0.02049541,0.02111566,-0.03155
 104,-0.08059625,-0.05970018,0.03395127,0.12084374,-0.00715759,0.003611
 67,0.00226511,0.00005533,0.03060938,0.00107686,-0.06366307,0.04099540,
 0.00719889,0.01117036,-0.01534213,-0.00263757,-0.00205463,-0.00591265,
 0.00077713,0.06080785,-0.00005876,0.00164455,-0.00039025,0.00047540,-0
 .00406244,0.00015085,0.04992266,-0.36280481,-0.02913623,0.00725173,-0.
 00558291,-0.00135208,-0.00091459,-0.00209462,-0.00043996,-0.05592159,0
 .37294306,0.00201300,-0.00086151,0.00722451,-0.00096910,-0.00393673,-0
 .00716787,0.00782130,-0.02796877,-0.03420060,-0.00110973,0.00177509,-0
 .00021687,0.00109979,0.00026353,0.00633714,-0.00870360,0.03105728,0.02
 795624,0.00080449,0.00150065,0.00105270,-0.00093321,-0.00078231,0.0009
 7255,-0.00353832,0.00470971,0.00073728,-0.36695351,-0.00835006,0.04536
 371,-0.00888060,-0.00142082,0.00013005,-0.00023852,-0.00024915,-0.0001
 9951,0.37969170,0.00527844,-0.00626543,-0.00164834,-0.00575064,-0.0035
 0358,0.00011846,-0.01837397,0.00932035,0.00317007,-0.01734465,-0.05844
 593,0.00042001,0.02967313,0.00545005,-0.00322836,0.00070969,-0.0001183
 7,0.00000220,0.00498543,0.05228631,0.00130623,-0.00114044,0.00741400,0
 .00063288,-0.00056234,0.00640870,-0.00081093,0.00002567,-0.00042023,0.
 04479119,-0.00080511,-0.03765028,0.00219489,0.00101823,-0.00743633,-0.
 00013598,0.00012888,-0.00153245,-0.04825642,0.00130704,0.03154927,-0.2
 5161383,0.14717235,0.04169048,0.01583463,-0.00421573,-0.00388030,0.007
 97268,-0.00630071,-0.00079981,-0.00120071,-0.00978512,0.00026996,-0.01
 790178,0.01540031,0.00196510,0.00143373,-0.00028602,0.00002848,0.00019
 682,0.00055252,0.00026137,0.23657816,0.14646226,-0.19707462,-0.0316959
 8,0.02369333,-0.01660365,-0.00364652,-0.00754591,-0.00476756,0.0003746
 6,-0.00797733,0.00457116,0.00104959,-0.01113550,0.01880355,0.00342116,
 0.00089293,0.00019027,-0.00022757,-0.00053356,0.00149427,0.00005929,-0
 .13206788,0.19153160,0.04125931,-0.03152973,-0.02502253,-0.00191334,0.
 00008392,-0.01026449,-0.00087056,0.00012492,0.00558072,0.00042415,0.00
 129392,0.00556277,0.00026737,-0.00021623,-0.01103936,0.00011799,-0.000
 06801,0.00175952,0.00018596,-0.00010398,0.00177002,-0.03570360,0.02874
 817,0.03815819,0.00191184,-0.00098579,-0.00056926,-0.00529394,0.002080
 82,0.00108488,-0.00098223,-0.00043553,0.00011588,-0.00023942,0.0002574
 3,0.00006698,0.00175748,0.00217233,0.00001933,-0.00050370,0.00050255,0
 .00010513,0.00008562,0.00011501,-0.00000211,0.00082677,-0.00040159,-0.
 00016408,1.13234036,0.00057369,-0.00240627,-0.00038444,0.00012936,-0.0
 0072103,-0.00061610,-0.00057365,0.00173321,0.00017356,0.00092971,0.000
 55183,0.00003692,0.00182738,0.00086052,-0.00010427,0.00030619,-0.00018
 094,-0.00013243,0.00009148,0.00016400,0.00000710,0.00038706,-0.0003495
 0,-0.00007244,-0.78802776,0.75409484,-0.00061319,0.00009576,-0.0001806
 9,0.00128074,-0.00066669,-0.00146259,0.00015838,0.00019746,-0.00003474
 ,0.00012110,-0.00002652,0.00008502,-0.00032831,-0.00057487,0.00016931,
 0.00013815,-0.00016072,-0.00012634,-0.00001604,-0.00002654,0.00001994,
 -0.00021504,0.00009725,0.00003012,-0.34963057,0.27736706,0.26961024,-0
 .00079222,-0.00007327,0.00023138,0.00073095,-0.00279261,-0.00031812,-0
 .00035378,0.00050297,0.00010641,0.00058697,-0.00006548,-0.00001200,-0.
 00043978,-0.00108021,-0.00007322,0.00035471,-0.00058338,-0.00014910,-0
 .00002693,-0.00002350,0.00000313,-0.00028637,0.00012613,0.00005527,-0.
 55750373,0.40010067,0.17241225,0.61780544,-0.00143118,0.00103063,0.000
 36499,0.00049903,-0.00534017,-0.00030773,0.00034534,-0.00025405,0.0000
 1919,-0.00001638,-0.00019508,-0.00003470,-0.00088012,-0.00107665,0.000
 01830,0.00002742,-0.00010649,-0.00000622,-0.00004579,-0.00005444,0.000
 00066,-0.00025489,0.00021506,0.00004106,0.39940553,-0.39283820,-0.1411
 1498,-0.47000544,0.42356133,0.00020615,0.00004783,0.00034242,-0.000112
 63,0.00058830,0.00042908,0.00002260,-0.00014568,-0.00014777,-0.0001147
 4,0.00000775,0.00009926,0.00007286,0.00022654,-0.00012010,-0.00009248,
 0.00012160,0.00000247,0.00000253,0.00000402,-0.00000704,0.00006555,-0.
 00002286,-0.00003087,0.17258979,-0.14155104,-0.13342599,-0.20657965,0.
 16733886,0.10921635,-0.00065195,0.00070226,0.00022923,-0.00109980,-0.0
 0095819,0.00073956,-0.00032406,-0.00058048,0.00003366,-0.00022180,-0.0
 0023522,-0.00004815,-0.00092106,-0.00085641,0.00000093,0.00012264,-0.0
 0026201,0.00001622,-0.00005490,-0.00010575,-0.00000765,-0.00040865,0.0
 0021122,0.00008198,-0.56895512,0.38217387,0.17571217,-0.06150139,0.073
 17329,0.03447538,0.63396481,0.00017111,0.00073321,0.00003272,-0.003432
 82,-0.00050295,0.00117345,-0.00009477,-0.00089866,-0.00002308,-0.00046
 994,-0.00015108,0.00000666,-0.00042692,-0.00004702,0.00001404,-0.00013
 489,0.00024436,0.00006550,-0.00002724,-0.00006092,-0.00000762,0.000026
 57,0.00007132,0.00000037,0.38016464,-0.35720959,-0.13326832,0.07629498
 ,-0.02667571,-0.02766689,-0.45325861,0.38771613,0.00022754,-0.00010166
 ,-0.00003091,0.00020067,0.00013044,0.00047281,0.00014381,0.00013450,0.
 00001558,0.00002809,0.00002131,-0.00004723,0.00017948,0.00023091,-0.00
 004224,-0.00003085,0.00009416,0.00005757,0.00001198,0.00002690,-0.0000
 0970,0.00009429,-0.00004274,-0.00002513,0.17842854,-0.13594694,-0.1357
 0890,0.03311289,-0.02543242,0.02415380,-0.21102201,0.15811673,0.113002
 88,0.00073881,0.00038078,-0.00003757,-0.00005890,0.00039406,0.00006528
 ,0.00030907,-0.00003208,-0.00005778,0.00025177,-0.00026592,-0.00005590
 ,-0.00001465,-0.00042737,0.00000937,0.00001728,-0.00000798,-0.00000668
 ,0.00002071,-0.00003826,-0.00001220,-0.00644703,0.00043104,-0.00030067
 ,0.00033580,-0.00013359,-0.00018189,-0.00017133,0.00009069,0.00008982,
 -0.00030200,0.00029944,-0.00008376,0.24263320,0.00125209,-0.00158043,-
 0.00055603,0.00020589,0.00007881,-0.00008133,0.00023746,-0.00018412,-0
 .00002631,0.00009080,-0.00021723,-0.00002411,-0.00030624,-0.00007388,0
 .00002523,0.00003700,-0.00001536,0.00000228,0.00001320,-0.00002120,0.0
 0000720,-0.00190019,0.00369623,0.00137842,0.00046724,-0.00029109,-0.00
 020704,-0.00024090,0.00015541,0.00010966,-0.00035205,0.00042160,-0.000
 08289,0.18955379,0.18175664,0.00080469,-0.00072895,-0.00014102,0.00012
 230,0.00010772,-0.00004098,0.00017716,-0.00009938,-0.00003878,0.000123
 45,-0.00015744,-0.00001329,-0.00011822,-0.00016607,-0.00001239,0.00002
 385,-0.00000965,-0.00000145,0.00001375,-0.00002273,0.00000007,-0.00259
 655,0.00212074,0.00076694,0.00018574,-0.00007747,-0.00008496,-0.000093
 29,0.00004578,0.00004814,-0.00017574,0.00018600,-0.00008402,0.08200517
 ,0.08521520,0.09161192,-0.01456691,0.01143190,0.00342852,-0.00202632,-
 0.00161239,0.00019664,-0.00239690,0.00137098,0.00038994,-0.00180734,0.
 00215121,0.00033807,0.00130539,0.00235584,0.00011148,-0.00031103,0.000
 09112,0.00002459,-0.00015849,0.00029080,0.00000559,0.01181606,-0.01008
 064,-0.00598495,-0.00047983,-0.00007706,0.00016631,0.00019999,0.000050
 36,-0.00006779,0.00031113,-0.00014760,0.00001442,-0.24643400,-0.191626
 25,-0.05385082,0.31613381,0.01196397,-0.00301628,-0.00165110,0.0000867
 8,0.00186696,0.00015973,0.00155376,-0.00058154,-0.00029779,0.00142705,
 -0.00129333,-0.00025075,-0.00000521,-0.00246188,-0.00027205,0.00013036
 ,-0.00005165,-0.00002312,0.00011669,-0.00025077,-0.00001989,-0.0099788
 5,-0.00033608,0.00228983,-0.00008530,0.00033516,0.00007401,0.00007919,
 -0.00017487,-0.00004891,0.00009724,-0.00016955,0.00006171,-0.20649421,
 -0.18204011,-0.06578390,0.20361140,0.23268297,0.00406053,-0.00232085,0
 .00251830,0.00009977,0.00045223,0.00036017,0.00043768,-0.00016541,-0.0
 0021197,0.00031242,-0.00040016,-0.00021806,-0.00010544,-0.00046454,0.0
 0049002,0.00002730,-0.00001148,-0.00009499,0.00001640,-0.00004670,-0.0
 0011113,-0.00491663,0.00202415,-0.00662413,-0.00002823,0.00006337,0.00
 000608,0.00001915,-0.00004068,-0.00001616,0.00006273,-0.00010496,0.000
 05898,-0.09291867,-0.09258007,-0.07557691,-0.01894796,0.18555184,0.569
 74133,-0.00146891,0.00113926,-0.00038600,-0.00009784,-0.00010018,-0.00
 009466,-0.00014980,0.00007114,0.00007474,-0.00011087,0.00014491,0.0000
 5374,0.00006590,0.00012741,-0.00010606,-0.00001585,0.00000699,0.000024
 79,-0.00000991,0.00001802,0.00002649,0.00187024,-0.00130878,0.00274325
 ,-0.00002196,-0.00000483,0.00001273,0.00000854,0.00000654,-0.00000563,
 0.00001573,-0.00001076,-0.00000049,0.00685777,-0.00534714,-0.03081421,
 -0.05233062,0.00939803,0.11977442,0.04668407,0.00063547,-0.00013781,0.
 00018658,-0.00007653,0.00001377,0.00003857,-0.00001440,-0.00000929,-0.
 00000379,0.00001152,0.00002850,-0.00003087,0.00008500,-0.00005228,0.00
 009142,-0.00000295,-0.00000183,-0.00000911,0.00000051,-0.00000279,-0.0
 0001758,-0.00003965,-0.00046285,-0.00170946,0.00005216,-0.00005245,-0.
 00002413,-0.00002580,0.00002216,0.00000993,-0.00001832,0.00003501,0.00
 002303,0.00784612,-0.00443906,-0.02668607,-0.00457558,-0.03445221,-0.0
 8344365,-0.00281363,0.04023335,-0.00123265,0.00074128,0.00004055,0.000
 01641,-0.00019766,-0.00000652,-0.00018586,0.00005463,0.00003204,-0.000
 11215,0.00017032,0.00004366,0.00009751,0.00012820,-0.00002799,-0.00001
 456,0.00000774,0.00000206,-0.00001297,0.00001829,0.00000426,0.00294193
 ,-0.00169857,-0.00045367,-0.00001390,-0.00001744,0.00000792,0.00000280
 ,0.00000977,-0.00000105,0.00000264,-0.00000261,-0.00001311,0.00718552,
 0.00094555,-0.01302311,0.08232875,-0.11199050,-0.48906935,-0.09134013,
 0.11148079,0.50203620,0.00002951,-0.00007147,0.00000249,-0.00005033,0.
 00009728,-0.00000039,-0.00002932,0.00006579,0.00000962,0.00000702,-0.0
 0000787,-0.00000149,0.00007242,0.00006292,-0.00000428,-0.00001076,0.00
 002665,0.00000181,0.00000358,0.00000533,-0.00000167,0.00005973,-0.0000
 7566,-0.00002212,-0.00470059,0.00316527,0.00167860,0.00200457,-0.00139
 443,-0.00082243,0.00114215,-0.00053241,-0.00113901,0.00229937,-0.00065
 196,0.00152807,-0.00131614,-0.00049752,-0.00077796,-0.00010323,-0.0000
 2245,-0.00005389,0.08646255,-0.00004043,0.00003051,0.00003869,-0.00012
 397,-0.00011317,0.00001485,0.00003272,-0.00002114,-0.00000587,0.000003
 05,-0.00003372,-0.00000391,-0.00007886,-0.00007679,-0.00001156,0.00001
 148,-0.00000883,-0.00000295,-0.00000275,-0.00000657,-0.00000103,-0.000
 17421,0.00006408,0.00001211,0.00770615,-0.00541894,-0.00355911,-0.0035
 9285,0.00272750,0.00167840,-0.00283447,-0.00038980,0.00242260,-0.00044
 962,-0.00373872,-0.00049385,0.00030869,0.00084447,0.00028350,0.0000256
 8,0.00003034,-0.00004882,-0.18621285,0.43211046,0.00000112,-0.00000036
 ,-0.00000163,0.00004589,0.00005063,-0.00004200,-0.00001483,0.00002302,
 -0.00000084,0.00000562,0.00001052,0.00000191,0.00004991,0.00004426,-0.
 00000141,-0.00000643,0.00000599,0.00000369,0.00000278,0.00000370,0.000
 00304,0.00009692,-0.00009035,0.00000670,-0.00335345,0.00177207,0.00182
 474,0.00195906,-0.00134569,-0.00086057,0.00132050,-0.00044984,-0.00167
 199,0.00228219,0.00044843,0.00125431,-0.00130482,-0.00064022,-0.000663
 96,-0.00004461,-0.00006642,0.00002971,0.04401016,-0.09481414,0.0697808
 3,-0.00027136,0.00037506,0.00013829,-0.00008414,-0.00012001,-0.0000293
 5,-0.00009114,0.00002415,-0.00000055,-0.00008027,0.00008810,0.00001375
 ,0.00002509,0.00004073,-0.00000492,-0.00000808,0.00000638,0.00000294,-
 0.00000856,0.00000729,0.00000649,0.00125550,-0.00067031,-0.00013403,0.
 00125305,-0.00081708,-0.00060118,-0.00052117,0.00037995,0.00022469,-0.
 00096918,0.00126778,-0.00013004,-0.00016820,0.00777569,0.00462196,-0.0
 0724909,-0.01057560,-0.00743545,-0.00129595,-0.00112407,0.00039094,-0.
 08465702,0.18434160,-0.02653771,0.10133082,-0.00045975,0.00029676,0.00
 004431,0.00004111,-0.00006604,0.00001278,-0.00012886,0.00006548,0.0000
 2915,-0.00006226,0.00011571,0.00001846,0.00011218,0.00011295,0.0000055
 3,-0.00001669,0.00000541,0.00000145,-0.00000550,0.00001401,0.00000014,
 0.00136397,-0.00097659,-0.00024650,-0.00276067,0.00164832,0.00161257,0
 .00120295,-0.00088908,-0.00059646,0.00270085,-0.00248772,0.00019620,0.
 00709026,0.00439447,0.00812593,-0.01197517,-0.00950138,-0.00876552,-0.
 00144901,-0.00083827,0.00033333,0.18422159,-0.42329305,0.05301118,-0.1
 9493689,0.47155624,-0.00026739,0.00019701,-0.00001322,0.00001314,-0.00
 010106,0.00002547,-0.00006418,0.00003180,0.00001798,-0.00004063,0.0000
 5689,0.00000477,0.00002647,0.00002709,0.00002549,-0.00000402,0.0000016
 0,-0.00000323,-0.00000548,0.00000624,-0.00000244,0.00079180,-0.0005089
 1,-0.00018581,0.00146203,-0.00069812,-0.00088311,-0.00084605,0.0005557
 7,0.00040831,-0.00164269,0.00214874,-0.00019604,0.00348430,0.00713917,
 -0.00273627,-0.00752608,-0.00792234,-0.00113229,0.00000949,0.00013460,
 0.00041612,-0.04695435,0.10037105,-0.06034852,0.05998332,-0.09986778,0
 .59124281,-0.00000754,-0.00001548,-0.00000831,0.00004298,-0.00000227,0
 .00002890,-0.00000138,0.00001243,0.00000613,0.00000776,0.00000010,-0.0
 0000831,-0.00000028,-0.00000569,0.00000921,0.00000132,0.,-0.00000032,0
 .00000003,0.00000111,-0.00000132,0.00001405,-0.00001976,-0.00004194,0.
 00016959,-0.00005071,-0.00009421,-0.00009448,0.00005008,0.00004599,-0.
 00014656,0.00031142,-0.00003556,0.00013232,0.00079158,-0.00195731,-0.0
 0068970,-0.00082777,0.00031993,0.00010270,0.00008259,-0.00000040,-0.00
 121354,0.00108063,-0.01851229,-0.00846031,0.01506190,-0.00841967,0.010
 14303,-0.00001864,0.00002948,0.00002011,-0.00000693,-0.00000041,-0.000
 00663,-0.00000270,0.00000099,-0.00000103,-0.00000640,0.00000373,0.0000
 0048,0.00000281,0.00000855,0.00000026,-0.00000063,0.00000060,0.0000010
 8,-0.00000049,0.00000101,-0.00000019,0.00010048,-0.00006669,-0.0000263
 5,-0.00022725,0.00008011,0.00018482,0.00017654,-0.00010736,-0.00010106
 ,0.00040278,-0.00062863,0.00014816,0.00176284,0.00209803,-0.00157587,-
 0.00156762,-0.00139992,-0.00003106,0.00009637,0.00008573,0.00006571,0.
 00182178,-0.00270661,0.04203723,0.01393721,-0.04015721,-0.00157175,-0.
 01647017,0.04275861,0.00001811,-0.00003308,0.00003583,-0.00001868,0.00
 001644,-0.00001857,0.00000785,-0.00000308,-0.00000512,0.00000417,-0.00
 000612,-0.00000072,-0.00000293,0.00000193,-0.00001689,0.00000021,0.000
 00029,0.00000059,0.00000071,-0.00000028,0.00000030,-0.00009395,0.00003
 850,0.00001100,-0.00029672,0.00018063,0.00015394,0.00016906,-0.0001119
 5,-0.00009028,0.00022125,-0.00022087,0.00006764,-0.00146651,-0.0017133
 6,-0.00192819,0.00067811,0.00076346,0.00054407,0.00007216,0.00002615,-
 0.00001771,0.00254684,-0.00587996,-0.00931400,-0.03050915,0.04608523,-
 0.52664000,0.02866946,-0.03914392,0.53721811\\0.00000156,0.00000969,-0
 .00000105,0.00000754,-0.00001042,0.00000377,-0.00000744,0.00000744,0.0
 0000877,0.00000603,-0.00000222,0.00000588,-0.00000538,0.00000284,-0.00
 000674,0.00000287,-0.00000071,0.00001524,0.00000050,0.00000045,0.00000
 471,0.00000197,0.00000201,-0.00000810,-0.00000625,0.00000632,0.0000167
 4,0.00000524,-0.00000267,0.00002002,0.00000328,-0.00000043,0.00000844,
 0.00000549,0.00000573,-0.00000996,-0.00000707,0.00000094,-0.00002565,-
 0.00000457,0.00000592,-0.00001192,0.00000553,-0.00000563,-0.00000365,-
 0.00001121,-0.00000354,-0.00000107,0.00000191,-0.00001574,-0.00001543\
 \\@


 Spring appears, and we are once more children.
                                  -- Anonymous
 Job cpu time:       0 days  0 hours 31 minutes 48.9 seconds.
 Elapsed time:       0 days  0 hours  1 minutes 20.3 seconds.
 File lengths (MBytes):  RWF=    140 Int=      0 D2E=      0 Chk=     10 Scr=      1
 Normal termination of Gaussian 16 at Tue Jul 11 06:31:27 2023.
