 Entering Gaussian System, Link 0=/opt/soft/g16/g16
 Initial command:
 /opt/soft/g16/l1.exe "/scratch/gongke2021/PC/Gau-28591.inp" -scrdir="/scratch/gongke2021/PC/"
 Entering Link 1 = /opt/soft/g16/l1.exe PID=     28592.
  
 Copyright (c) 1988,1990,1992,1993,1995,1998,2003,2009,2016,
            Gaussian, Inc.  All Rights Reserved.
  
 This is part of the Gaussian(R) 16 program.  It is based on
 the Gaussian(R) 09 system (copyright 2009, Gaussian, Inc.),
 the Gaussian(R) 03 system (copyright 2003, Gaussian, Inc.),
 the Gaussian(R) 98 system (copyright 1998, Gaussian, Inc.),
 the Gaussian(R) 94 system (copyright 1995, Gaussian, Inc.),
 the Gaussian 92(TM) system (copyright 1992, Gaussian, Inc.),
 the Gaussian 90(TM) system (copyright 1990, Gaussian, Inc.),
 the Gaussian 88(TM) system (copyright 1988, Gaussian, Inc.),
 the Gaussian 86(TM) system (copyright 1986, Carnegie Mellon
 University), and the Gaussian 82(TM) system (copyright 1983,
 Carnegie Mellon University). Gaussian is a federally registered
 trademark of Gaussian, Inc.
  
 This software contains proprietary and confidential information,
 including trade secrets, belonging to Gaussian, Inc.
  
 This software is provided under written license and may be
 used, copied, transmitted, or stored only in accord with that
 written license.
  
 The following legend is applicable only to US Government
 contracts under FAR:
  
                    RESTRICTED RIGHTS LEGEND
  
 Use, reproduction and disclosure by the US Government is
 subject to restrictions as set forth in subparagraphs (a)
 and (c) of the Commercial Computer Software - Restricted
 Rights clause in FAR 52.227-19.
  
 Gaussian, Inc.
 340 Quinnipiac St., Bldg. 40, Wallingford CT 06492
  
  
 ---------------------------------------------------------------
 Warning -- This program may not be used in any manner that
 competes with the business of Gaussian, Inc. or will provide
 assistance to any competitor of Gaussian, Inc.  The licensee
 of this program is prohibited from giving any competitor of
 Gaussian, Inc. access to this program.  By using this program,
 the user acknowledges that Gaussian, Inc. is engaged in the
 business of creating and licensing software in the field of
 computational chemistry and represents and warrants to the
 licensee that it is not a competitor of Gaussian, Inc. and that
 it will not use this program in any manner prohibited above.
 ---------------------------------------------------------------
  

 Cite this work as:
 Gaussian 16, Revision A.03,
 M. J. Frisch, G. W. Trucks, H. B. Schlegel, G. E. Scuseria, 
 M. A. Robb, J. R. Cheeseman, G. Scalmani, V. Barone, 
 G. A. Petersson, H. Nakatsuji, X. Li, M. Caricato, A. V. Marenich, 
 J. Bloino, B. G. Janesko, R. Gomperts, B. Mennucci, H. P. Hratchian, 
 J. V. Ortiz, A. F. Izmaylov, J. L. Sonnenberg, D. Williams-Young, 
 F. Ding, F. Lipparini, F. Egidi, J. Goings, B. Peng, A. Petrone, 
 T. Henderson, D. Ranasinghe, V. G. Zakrzewski, J. Gao, N. Rega, 
 G. Zheng, W. Liang, M. Hada, M. Ehara, K. Toyota, R. Fukuda, 
 J. Hasegawa, M. Ishida, T. Nakajima, Y. Honda, O. Kitao, H. Nakai, 
 T. Vreven, K. Throssell, J. A. Montgomery, Jr., J. E. Peralta, 
 F. Ogliaro, M. J. Bearpark, J. J. Heyd, E. N. Brothers, K. N. Kudin, 
 V. N. Staroverov, T. A. Keith, R. Kobayashi, J. Normand, 
 K. Raghavachari, A. P. Rendell, J. C. Burant, S. S. Iyengar, 
 J. Tomasi, M. Cossi, J. M. Millam, M. Klene, C. Adamo, R. Cammi, 
 J. W. Ochterski, R. L. Martin, K. Morokuma, O. Farkas, 
 J. B. Foresman, and D. J. Fox, Gaussian, Inc., Wallingford CT, 2016.
 
 ******************************************
 Gaussian 16:  ES64L-G16RevA.03 25-Dec-2016
                12-Jul-2023 
 ******************************************
 %mem=10GB
 %nprocshared=24
 Will use up to   24 processors via shared memory.
 -----------------------------------------------------
 # opt freq 6-31+g(d,p) scrf=(smd,solvent=water) m062x
 -----------------------------------------------------
 1/18=20,19=15,26=3,38=1/1,3;
 2/9=110,12=2,17=6,18=5,40=1/2;
 3/5=1,6=6,7=111,11=2,25=1,30=1,70=32201,71=1,72=1,74=-55/1,2,3;
 4//1;
 5/5=2,38=5,53=1/2;
 6/7=2,8=2,9=2,10=2,28=1/1;
 7//1,2,3,16;
 1/18=20,19=15,26=3/3(2);
 2/9=110/2;
 99//99;
 2/9=110/2;
 3/5=1,6=6,7=111,11=2,25=1,30=1,70=32205,71=1,72=1,74=-55/1,2,3;
 4/5=5,16=3,69=1/1;
 5/5=2,38=5,53=1/2;
 7//1,2,3,16;
 1/18=20,19=15,26=3/3(-5);
 2/9=110/2;
 6/7=2,8=2,9=2,10=2,19=2,28=1/1;
 99/9=1/99;
 ----
 test
 ----
 Symbolic Z-matrix:
 Charge = -1 Multiplicity = 2
 N                    -0.26241   1.01686  -0.23607 
 N                    -0.40276  -0.35809  -0.01862 
 C                    -1.75467  -0.65752   0.16847 
 C                    -2.38154   0.56163   0.0704 
 N                    -1.49657   1.55081  -0.16333 
 H                    -2.10137  -1.66042   0.34923 
 H                    -3.43866   0.76908   0.15908 
 H                     1.23906   1.83572   0.07166 
 C                     0.6144   -1.24819  -0.03117 
 O                     0.42474  -2.47426   0.09959 
 O                     1.86771  -0.78396  -0.22764 
 H                     2.41371   2.1261    1.0701 
 O                     2.2268    1.92585   0.14362 
 H                     1.99623   0.18586  -0.09477 
 
 Add virtual bond connecting atoms H8         and N1         Dist= 3.28D+00.
 Add virtual bond connecting atoms H8         and H14        Dist= 3.44D+00.
 Add virtual bond connecting atoms O13        and H14        Dist= 3.35D+00.

 GradGradGradGradGradGradGradGradGradGradGradGradGradGradGradGradGradGrad
 Berny optimization.
 Initialization pass.
                           ----------------------------
                           !    Initial Parameters    !
                           ! (Angstroms and Degrees)  !
 --------------------------                            --------------------------
 ! Name  Definition              Value          Derivative Info.                !
 --------------------------------------------------------------------------------
 ! R1    R(1,2)                  1.3991         estimate D2E/DX2                !
 ! R2    R(1,5)                  1.3467         estimate D2E/DX2                !
 ! R3    R(1,8)                  1.7377         estimate D2E/DX2                !
 ! R4    R(2,3)                  1.3973         estimate D2E/DX2                !
 ! R5    R(2,9)                  1.3517         estimate D2E/DX2                !
 ! R6    R(3,4)                  1.3744         estimate D2E/DX2                !
 ! R7    R(3,6)                  1.0764         estimate D2E/DX2                !
 ! R8    R(4,5)                  1.3477         estimate D2E/DX2                !
 ! R9    R(4,7)                  1.0809         estimate D2E/DX2                !
 ! R10   R(8,13)                 0.9945         estimate D2E/DX2                !
 ! R11   R(8,14)                 1.8229         estimate D2E/DX2                !
 ! R12   R(9,10)                 1.2475         estimate D2E/DX2                !
 ! R13   R(9,11)                 1.3509         estimate D2E/DX2                !
 ! R14   R(11,14)                0.9873         estimate D2E/DX2                !
 ! R15   R(12,13)                0.9661         estimate D2E/DX2                !
 ! R16   R(13,14)                1.7713         estimate D2E/DX2                !
 ! A1    A(2,1,5)              106.8174         estimate D2E/DX2                !
 ! A2    A(2,1,8)              121.483          estimate D2E/DX2                !
 ! A3    A(5,1,8)              126.5451         estimate D2E/DX2                !
 ! A4    A(1,2,3)              109.1754         estimate D2E/DX2                !
 ! A5    A(1,2,9)              124.7658         estimate D2E/DX2                !
 ! A6    A(3,2,9)              126.0306         estimate D2E/DX2                !
 ! A7    A(2,3,4)              103.9848         estimate D2E/DX2                !
 ! A8    A(2,3,6)              122.2609         estimate D2E/DX2                !
 ! A9    A(4,3,6)              133.7526         estimate D2E/DX2                !
 ! A10   A(3,4,5)              111.3428         estimate D2E/DX2                !
 ! A11   A(3,4,7)              127.6224         estimate D2E/DX2                !
 ! A12   A(5,4,7)              121.0348         estimate D2E/DX2                !
 ! A13   A(1,5,4)              108.6717         estimate D2E/DX2                !
 ! A14   A(1,8,13)             156.0276         estimate D2E/DX2                !
 ! A15   A(1,8,14)              85.1949         estimate D2E/DX2                !
 ! A16   A(2,9,10)             122.1284         estimate D2E/DX2                !
 ! A17   A(2,9,11)             118.2428         estimate D2E/DX2                !
 ! A18   A(10,9,11)            119.6054         estimate D2E/DX2                !
 ! A19   A(9,11,14)            116.0252         estimate D2E/DX2                !
 ! A20   A(8,13,12)            106.2799         estimate D2E/DX2                !
 ! A21   A(12,13,14)           110.9682         estimate D2E/DX2                !
 ! A22   A(8,14,11)            147.9166         estimate D2E/DX2                !
 ! A23   L(11,14,13,1,-1)      180.0            estimate D2E/DX2                !
 ! A24   L(11,14,13,1,-2)      180.0            estimate D2E/DX2                !
 ! D1    D(5,1,2,3)              0.9146         estimate D2E/DX2                !
 ! D2    D(5,1,2,9)            179.0789         estimate D2E/DX2                !
 ! D3    D(8,1,2,3)            157.0539         estimate D2E/DX2                !
 ! D4    D(8,1,2,9)            -24.7818         estimate D2E/DX2                !
 ! D5    D(2,1,5,4)             -0.8087         estimate D2E/DX2                !
 ! D6    D(8,1,5,4)           -155.3798         estimate D2E/DX2                !
 ! D7    D(2,1,8,13)            30.1061         estimate D2E/DX2                !
 ! D8    D(2,1,8,14)            21.6511         estimate D2E/DX2                !
 ! D9    D(5,1,8,13)          -178.7085         estimate D2E/DX2                !
 ! D10   D(5,1,8,14)           172.8366         estimate D2E/DX2                !
 ! D11   D(1,2,3,4)             -0.6463         estimate D2E/DX2                !
 ! D12   D(1,2,3,6)            179.7716         estimate D2E/DX2                !
 ! D13   D(9,2,3,4)           -178.7817         estimate D2E/DX2                !
 ! D14   D(9,2,3,6)              1.6363         estimate D2E/DX2                !
 ! D15   D(1,2,9,10)          -176.164          estimate D2E/DX2                !
 ! D16   D(1,2,9,11)             2.0691         estimate D2E/DX2                !
 ! D17   D(3,2,9,10)             1.6919         estimate D2E/DX2                !
 ! D18   D(3,2,9,11)           179.9251         estimate D2E/DX2                !
 ! D19   D(2,3,4,5)              0.1488         estimate D2E/DX2                !
 ! D20   D(2,3,4,7)           -179.8356         estimate D2E/DX2                !
 ! D21   D(6,3,4,5)            179.6595         estimate D2E/DX2                !
 ! D22   D(6,3,4,7)             -0.3248         estimate D2E/DX2                !
 ! D23   D(3,4,5,1)              0.4221         estimate D2E/DX2                !
 ! D24   D(7,4,5,1)           -179.5924         estimate D2E/DX2                !
 ! D25   D(1,8,13,12)         -117.2385         estimate D2E/DX2                !
 ! D26   D(14,8,13,11)           0.0            estimate D2E/DX2                !
 ! D27   D(1,8,14,11)           -3.6202         estimate D2E/DX2                !
 ! D28   D(2,9,11,14)           16.8115         estimate D2E/DX2                !
 ! D29   D(10,9,11,14)        -164.9095         estimate D2E/DX2                !
 ! D30   D(9,11,13,12)          86.8732         estimate D2E/DX2                !
 ! D31   D(9,11,14,8)          -15.7519         estimate D2E/DX2                !
 ! D32   D(14,12,13,8)          81.8065         estimate D2E/DX2                !
 --------------------------------------------------------------------------------
 Trust Radius=3.00D-01 FncErr=1.00D-07 GrdErr=1.00D-06 EigMax=2.50D+02 EigMin=1.00D-04
 Number of steps in this run=     82 maximum allowed number of steps=    100.
 GradGradGradGradGradGradGradGradGradGradGradGradGradGradGradGradGradGrad

                          Input orientation:                          
 ---------------------------------------------------------------------
 Center     Atomic      Atomic             Coordinates (Angstroms)
 Number     Number       Type             X           Y           Z
 ---------------------------------------------------------------------
      1          7           0       -0.262412    1.016863   -0.236068
      2          7           0       -0.402755   -0.358090   -0.018618
      3          6           0       -1.754669   -0.657516    0.168467
      4          6           0       -2.381537    0.561631    0.070397
      5          7           0       -1.496570    1.550805   -0.163327
      6          1           0       -2.101369   -1.660419    0.349227
      7          1           0       -3.438655    0.769081    0.159082
      8          1           0        1.239056    1.835722    0.071662
      9          6           0        0.614396   -1.248188   -0.031166
     10          8           0        0.424743   -2.474262    0.099590
     11          8           0        1.867712   -0.783957   -0.227637
     12          1           0        2.413706    2.126099    1.070098
     13          8           0        2.226802    1.925849    0.143622
     14          1           0        1.996228    0.185862   -0.094766
 ---------------------------------------------------------------------
                    Distance matrix (angstroms):
                    1          2          3          4          5
     1  N    0.000000
     2  N    1.399098   0.000000
     3  C    2.279040   1.397257   0.000000
     4  C    2.189029   2.183893   1.374373   0.000000
     5  N    1.346674   2.204825   2.247973   1.347686   0.000000
     6  H    3.300329   2.171787   1.076424   2.256933   3.307636
     7  H    3.210305   3.243267   2.207051   1.080925   2.118191
     8  H    1.737709   2.741625   3.897178   3.838229   2.760443
     9  C    2.437464   1.351676   2.449738   3.501625   3.508277
    10  O    3.573906   2.275282   2.838159   4.134333   4.467856
    11  O    2.789346   2.319498   3.646166   4.467163   4.095564
    12  H    3.177748   3.910109   5.092819   5.142112   4.140357
    13  O    2.677052   3.486728   4.746209   4.806583   3.754780
    14  H    2.410806   2.461057   3.853545   4.396966   3.750654
                    6          7          8          9         10
     6  H    0.000000
     7  H    2.779741   0.000000
     8  H    4.843396   4.798577   0.000000
     9  C    2.773087   4.531312   3.148218   0.000000
    10  O    2.665690   5.044666   4.386325   1.247527   0.000000
    11  O    4.105431   5.542473   2.710628   1.350893   2.246412
    12  H    5.936605   6.076313   1.568756   3.979461   5.105015
    13  O    5.624647   5.782366   0.994456   3.564395   4.755032
    14  H    4.516214   5.471977   1.822922   1.992487   3.095739
                   11         12         13         14
    11  O    0.000000
    12  H    3.232747   0.000000
    13  O    2.758592   0.966122   0.000000
    14  H    0.987279   2.301242   1.771312   0.000000
 Stoichiometry    C3H5N3O3(1-,2)
 Framework group  C1[X(C3H5N3O3)]
 Deg. of freedom    36
 Full point group                 C1      NOp   1
 Largest Abelian subgroup         C1      NOp   1
 Largest concise Abelian subgroup C1      NOp   1
                         Standard orientation:                         
 ---------------------------------------------------------------------
 Center     Atomic      Atomic             Coordinates (Angstroms)
 Number     Number       Type             X           Y           Z
 ---------------------------------------------------------------------
      1          7           0        0.262412   -1.016863   -0.236068
      2          7           0        0.402755    0.358090   -0.018618
      3          6           0        1.754669    0.657516    0.168467
      4          6           0        2.381537   -0.561631    0.070397
      5          7           0        1.496570   -1.550805   -0.163327
      6          1           0        2.101369    1.660419    0.349227
      7          1           0        3.438655   -0.769081    0.159082
      8          1           0       -1.239056   -1.835722    0.071662
      9          6           0       -0.614396    1.248188   -0.031166
     10          8           0       -0.424743    2.474262    0.099590
     11          8           0       -1.867712    0.783957   -0.227637
     12          1           0       -2.413706   -2.126099    1.070098
     13          8           0       -2.226802   -1.925849    0.143622
     14          1           0       -1.996228   -0.185862   -0.094766
 ---------------------------------------------------------------------
 Rotational constants (GHZ):           1.9525398           1.6021889           0.8930062
 Standard basis: 6-31+G(d,p) (6D, 7F)
 There are   196 symmetry adapted cartesian basis functions of A   symmetry.
 There are   196 symmetry adapted basis functions of A   symmetry.
   196 basis functions,   323 primitive gaussians,   196 cartesian basis functions
    35 alpha electrons       34 beta electrons
       nuclear repulsion energy       453.0582400729 Hartrees.
 NAtoms=   14 NActive=   14 NUniq=   14 SFac= 1.00D+00 NAtFMM=   60 NAOKFM=F Big=F
 Integral buffers will be    131072 words long.
 Raffenetti 2 integral format.
 Two-electron integral symmetry is turned on.
 ------------------------------------------------------------------------------
 Polarizable Continuum Model (PCM)
 =================================
 Model                : PCM.
 Atomic radii         : SMD-Coulomb.
 Polarization charges : Total charges.
 Charge compensation  : None.
 Solution method      : On-the-fly selection.
 Cavity type          : VdW (van der Waals Surface) (Alpha=1.000).
 Cavity algorithm     : GePol (No added spheres)
                        Default sphere list used, NSphG=   14.
                        Lebedev-Laikov grids with approx.  5.0 points / Ang**2.
                        Smoothing algorithm: York/Karplus (Gamma=1.0000).
                        Polarization charges: spherical gaussians, with
                                              point-specific exponents (IZeta= 3).
                        Self-potential: point-specific (ISelfS= 7).
                        Self-field    : sphere-specific E.n sum rule (ISelfD= 2).
 1st derivatives      : Analytical E(r).r(x)/FMM algorithm (CHGder, D1EAlg=3).
                        Cavity 1st derivative terms included.
 Solvent              : Water, Eps=  78.355300 Eps(inf)=   1.777849
 ------------------------------------------------------------------------------
 Spheres list:
 ISph  on   Nord     Re0    Alpha      Xe            Ye            Ze
    1   N      1    1.8900  1.000      0.262412     -1.016863     -0.236068
    2   N      2    1.8900  1.000      0.402755      0.358090     -0.018618
    3   C      3    1.8500  1.000      1.754669      0.657516      0.168467
    4   C      4    1.8500  1.000      2.381537     -0.561631      0.070397
    5   N      5    1.8900  1.000      1.496570     -1.550805     -0.163327
    6   H      6    1.2000  1.000      2.101369      1.660419      0.349227
    7   H      7    1.2000  1.000      3.438655     -0.769081      0.159082
    8   H      8    1.2000  1.000     -1.239056     -1.835722      0.071662
    9   C      9    1.8500  1.000     -0.614396      1.248188     -0.031166
   10   O     10    1.5200  1.000     -0.424743      2.474262      0.099590
   11   O     11    1.5200  1.000     -1.867712      0.783957     -0.227637
   12   H     12    1.2000  1.000     -2.413706     -2.126099      1.070098
   13   O     13    1.5200  1.000     -2.226802     -1.925849      0.143622
   14   H     14    1.2000  1.000     -1.996228     -0.185862     -0.094766
 ------------------------------------------------------------------------------
 ------------------------------------------------------------------------------
 Atomic radii for non-electrostatic terms: SMD-CDS.
 ------------------------------------------------------------------------------
 Nuclear repulsion after PCM non-electrostatic terms =      453.0651000165 Hartrees.
 One-electron integrals computed using PRISM.
 NBasis=   196 RedAO= T EigKep=  2.44D-05  NBF=   196
 NBsUse=   196 1.00D-06 EigRej= -1.00D+00 NBFU=   196
 ExpMin= 4.38D-02 ExpMax= 5.48D+03 ExpMxC= 8.25D+02 IAcc=3 IRadAn=         5 AccDes= 0.00D+00
 Harris functional with IExCor= 1009 and IRadAn=       5 diagonalized for initial guess.
 HarFok:  IExCor= 1009 AccDes= 0.00D+00 IRadAn=         5 IDoV= 1 UseB2=F ITyADJ=14
 ICtDFT=  3500011 ScaDFX=  1.000000  1.000000  1.000000  1.000000
 FoFCou: FMM=F IPFlag=           0 FMFlag=      100000 FMFlg1=           0
         NFxFlg=           0 DoJE=T BraDBF=F KetDBF=T FulRan=T
         wScrn=  0.000000 ICntrl=       500 IOpCl=  0 I1Cent=   200000004 NGrid=           0
         NMat0=    1 NMatS0=      1 NMatT0=    0 NMatD0=    1 NMtDS0=    0 NMtDT0=    0
 Petite list used in FoFCou.
 Initial guess <Sx>= 0.0000 <Sy>= 0.0000 <Sz>= 0.5000 <S**2>= 0.7500 S= 0.5000
 Requested convergence on RMS density matrix=1.00D-08 within 128 cycles.
 Requested convergence on MAX density matrix=1.00D-06.
 Requested convergence on             energy=1.00D-06.
 No special actions if energy rises.
 Inv3:  Mode=1 IEnd=     4043763.
 Iteration    1 A*A^-1 deviation from unit magnitude is 2.89D-15 for    924.
 Iteration    1 A*A^-1 deviation from orthogonality  is 2.12D-15 for    696    380.
 Iteration    1 A^-1*A deviation from unit magnitude is 2.78D-15 for    924.
 Iteration    1 A^-1*A deviation from orthogonality  is 3.16D-15 for    705    676.
 Error on total polarization charges =  0.05757
 SCF Done:  E(UM062X) =  -507.175545413     A.U. after   17 cycles
            NFock= 17  Conv=0.99D-08     -V/T= 2.0084
 <Sx>= 0.0000 <Sy>= 0.0000 <Sz>= 0.5000 <S**2>= 0.7662 S= 0.5080
 <L.S>=  0.00000000000    
 SMD-CDS (non-electrostatic) energy       (kcal/mol) =       4.30
 (included in total energy above)
 Annihilation of the first spin contaminant:
 S**2 before annihilation     0.7662,   after     0.7501

 **********************************************************************

            Population analysis using the SCF density.

 **********************************************************************

 Orbital symmetries:
 Alpha Orbitals:
       Occupied  (A) (A) (A) (A) (A) (A) (A) (A) (A) (A) (A) (A)
                 (A) (A) (A) (A) (A) (A) (A) (A) (A) (A) (A) (A)
                 (A) (A) (A) (A) (A) (A) (A) (A) (A) (A) (A)
       Virtual   (A) (A) (A) (A) (A) (A) (A) (A) (A) (A) (A) (A)
                 (A) (A) (A) (A) (A) (A) (A) (A) (A) (A) (A) (A)
                 (A) (A) (A) (A) (A) (A) (A) (A) (A) (A) (A) (A)
                 (A) (A) (A) (A) (A) (A) (A) (A) (A) (A) (A) (A)
                 (A) (A) (A) (A) (A) (A) (A) (A) (A) (A) (A) (A)
                 (A) (A) (A) (A) (A) (A) (A) (A) (A) (A) (A) (A)
                 (A) (A) (A) (A) (A) (A) (A) (A) (A) (A) (A) (A)
                 (A) (A) (A) (A) (A) (A) (A) (A) (A) (A) (A) (A)
                 (A) (A) (A) (A) (A) (A) (A) (A) (A) (A) (A) (A)
                 (A) (A) (A) (A) (A) (A) (A) (A) (A) (A) (A) (A)
                 (A) (A) (A) (A) (A) (A) (A) (A) (A) (A) (A) (A)
                 (A) (A) (A) (A) (A) (A) (A) (A) (A) (A) (A) (A)
                 (A) (A) (A) (A) (A) (A) (A) (A) (A) (A) (A) (A)
                 (A) (A) (A) (A) (A)
 Beta  Orbitals:
       Occupied  (A) (A) (A) (A) (A) (A) (A) (A) (A) (A) (A) (A)
                 (A) (A) (A) (A) (A) (A) (A) (A) (A) (A) (A) (A)
                 (A) (A) (A) (A) (A) (A) (A) (A) (A) (A)
       Virtual   (A) (A) (A) (A) (A) (A) (A) (A) (A) (A) (A) (A)
                 (A) (A) (A) (A) (A) (A) (A) (A) (A) (A) (A) (A)
                 (A) (A) (A) (A) (A) (A) (A) (A) (A) (A) (A) (A)
                 (A) (A) (A) (A) (A) (A) (A) (A) (A) (A) (A) (A)
                 (A) (A) (A) (A) (A) (A) (A) (A) (A) (A) (A) (A)
                 (A) (A) (A) (A) (A) (A) (A) (A) (A) (A) (A) (A)
                 (A) (A) (A) (A) (A) (A) (A) (A) (A) (A) (A) (A)
                 (A) (A) (A) (A) (A) (A) (A) (A) (A) (A) (A) (A)
                 (A) (A) (A) (A) (A) (A) (A) (A) (A) (A) (A) (A)
                 (A) (A) (A) (A) (A) (A) (A) (A) (A) (A) (A) (A)
                 (A) (A) (A) (A) (A) (A) (A) (A) (A) (A) (A) (A)
                 (A) (A) (A) (A) (A) (A) (A) (A) (A) (A) (A) (A)
                 (A) (A) (A) (A) (A) (A) (A) (A) (A) (A) (A) (A)
                 (A) (A) (A) (A) (A) (A)
 The electronic state is 2-A.
 Alpha  occ. eigenvalues --  -19.67520 -19.64061 -19.62021 -14.84066 -14.79428
 Alpha  occ. eigenvalues --  -14.76619 -10.69714 -10.56486 -10.56163  -1.22792
 Alpha  occ. eigenvalues --   -1.16572  -1.12846  -1.11688  -1.00261  -0.88319
 Alpha  occ. eigenvalues --   -0.78065  -0.69268  -0.67780  -0.64002  -0.59349
 Alpha  occ. eigenvalues --   -0.56780  -0.53825  -0.52532  -0.49877  -0.49237
 Alpha  occ. eigenvalues --   -0.47506  -0.46238  -0.40527  -0.40007  -0.38958
 Alpha  occ. eigenvalues --   -0.37446  -0.36256  -0.34102  -0.32228  -0.15560
 Alpha virt. eigenvalues --    0.02755   0.04181   0.05178   0.05632   0.06480
 Alpha virt. eigenvalues --    0.06749   0.07406   0.08581   0.09851   0.10650
 Alpha virt. eigenvalues --    0.11547   0.12643   0.13944   0.14513   0.16170
 Alpha virt. eigenvalues --    0.17146   0.17515   0.19977   0.20305   0.21094
 Alpha virt. eigenvalues --    0.22103   0.22598   0.23440   0.23820   0.24652
 Alpha virt. eigenvalues --    0.24914   0.26483   0.26531   0.26901   0.27561
 Alpha virt. eigenvalues --    0.28492   0.29273   0.29686   0.30595   0.31586
 Alpha virt. eigenvalues --    0.32616   0.32694   0.34460   0.35414   0.36808
 Alpha virt. eigenvalues --    0.37865   0.38358   0.39703   0.40842   0.42144
 Alpha virt. eigenvalues --    0.45209   0.47596   0.51168   0.51516   0.53299
 Alpha virt. eigenvalues --    0.63729   0.72685   0.74153   0.77708   0.81247
 Alpha virt. eigenvalues --    0.82090   0.84095   0.90938   0.93702   0.96270
 Alpha virt. eigenvalues --    0.96719   0.99573   1.00300   1.01784   1.03364
 Alpha virt. eigenvalues --    1.03830   1.07190   1.09291   1.12778   1.15073
 Alpha virt. eigenvalues --    1.17931   1.19125   1.21380   1.21911   1.23098
 Alpha virt. eigenvalues --    1.24983   1.25488   1.27607   1.31043   1.32767
 Alpha virt. eigenvalues --    1.33540   1.35646   1.37863   1.38218   1.39519
 Alpha virt. eigenvalues --    1.40790   1.41777   1.42854   1.45198   1.47882
 Alpha virt. eigenvalues --    1.51807   1.53317   1.56098   1.57736   1.59060
 Alpha virt. eigenvalues --    1.60608   1.63899   1.68224   1.70144   1.76210
 Alpha virt. eigenvalues --    1.82225   1.83346   1.85003   1.87266   1.90329
 Alpha virt. eigenvalues --    1.93038   1.95959   1.98747   1.99098   2.02189
 Alpha virt. eigenvalues --    2.05958   2.12367   2.15774   2.18280   2.23362
 Alpha virt. eigenvalues --    2.24367   2.28716   2.30171   2.35291   2.35502
 Alpha virt. eigenvalues --    2.40657   2.42044   2.44417   2.46706   2.52167
 Alpha virt. eigenvalues --    2.55372   2.56394   2.57047   2.59327   2.61954
 Alpha virt. eigenvalues --    2.65725   2.67934   2.72637   2.74489   2.75166
 Alpha virt. eigenvalues --    2.80038   2.86100   2.86817   2.91421   2.93470
 Alpha virt. eigenvalues --    2.97929   3.00772   3.07753   3.09670   3.13917
 Alpha virt. eigenvalues --    3.20446   3.34246   3.41719   3.46927   3.60489
 Alpha virt. eigenvalues --    3.73395   3.76507   4.04642   4.22430   4.29266
 Alpha virt. eigenvalues --    4.31014   4.34609   4.50238   4.53650   4.73052
 Alpha virt. eigenvalues --    4.75343
  Beta  occ. eigenvalues --  -19.67462 -19.64057 -19.61797 -14.84071 -14.78890
  Beta  occ. eigenvalues --  -14.76327 -10.69563 -10.56302 -10.56214  -1.22303
  Beta  occ. eigenvalues --   -1.15756  -1.12598  -1.11342  -0.99411  -0.87380
  Beta  occ. eigenvalues --   -0.76930  -0.68879  -0.67377  -0.63387  -0.59196
  Beta  occ. eigenvalues --   -0.55189  -0.53238  -0.52224  -0.49224  -0.47864
  Beta  occ. eigenvalues --   -0.47286  -0.45877  -0.40169  -0.38545  -0.38201
  Beta  occ. eigenvalues --   -0.36791  -0.33725  -0.33254  -0.28978
  Beta virt. eigenvalues --   -0.00014   0.02343   0.04043   0.04909   0.05089
  Beta virt. eigenvalues --    0.06339   0.07124   0.07872   0.08439   0.09954
  Beta virt. eigenvalues --    0.11164   0.11917   0.12609   0.13625   0.14259
  Beta virt. eigenvalues --    0.16147   0.16539   0.17393   0.19873   0.20227
  Beta virt. eigenvalues --    0.21196   0.22192   0.22517   0.23202   0.23808
  Beta virt. eigenvalues --    0.24735   0.24839   0.26190   0.26335   0.26833
  Beta virt. eigenvalues --    0.27363   0.28463   0.29258   0.29823   0.30518
  Beta virt. eigenvalues --    0.31538   0.32538   0.32724   0.34395   0.35309
  Beta virt. eigenvalues --    0.36278   0.37695   0.38178   0.39680   0.40770
  Beta virt. eigenvalues --    0.42165   0.45035   0.47394   0.51566   0.51675
  Beta virt. eigenvalues --    0.53629   0.64065   0.72902   0.73905   0.79109
  Beta virt. eigenvalues --    0.81980   0.82419   0.84076   0.91063   0.94019
  Beta virt. eigenvalues --    0.96410   0.97977   0.99748   1.00631   1.02097
  Beta virt. eigenvalues --    1.04116   1.05268   1.07389   1.09522   1.12959
  Beta virt. eigenvalues --    1.15435   1.17886   1.19596   1.21335   1.22024
  Beta virt. eigenvalues --    1.23212   1.25116   1.25733   1.28499   1.31343
  Beta virt. eigenvalues --    1.32769   1.34103   1.36205   1.38374   1.38592
  Beta virt. eigenvalues --    1.40177   1.41291   1.41822   1.43036   1.45388
  Beta virt. eigenvalues --    1.48491   1.52130   1.53689   1.56344   1.58680
  Beta virt. eigenvalues --    1.59163   1.60692   1.64512   1.68408   1.70441
  Beta virt. eigenvalues --    1.76324   1.82355   1.83675   1.85311   1.87448
  Beta virt. eigenvalues --    1.90729   1.93351   1.96358   1.99328   1.99608
  Beta virt. eigenvalues --    2.02442   2.06267   2.12958   2.16254   2.18717
  Beta virt. eigenvalues --    2.24360   2.24851   2.28899   2.30246   2.35870
  Beta virt. eigenvalues --    2.36160   2.40795   2.42633   2.45161   2.47378
  Beta virt. eigenvalues --    2.52450   2.55680   2.56887   2.57475   2.59627
  Beta virt. eigenvalues --    2.62396   2.66142   2.68185   2.73378   2.74799
  Beta virt. eigenvalues --    2.75612   2.80860   2.86611   2.86988   2.91901
  Beta virt. eigenvalues --    2.94071   2.98261   3.01112   3.07897   3.10079
  Beta virt. eigenvalues --    3.14307   3.21019   3.34545   3.42232   3.46937
  Beta virt. eigenvalues --    3.60542   3.73437   3.77131   4.04922   4.22536
  Beta virt. eigenvalues --    4.29327   4.31294   4.34712   4.50245   4.55113
  Beta virt. eigenvalues --    4.73183   4.76397
          Condensed to atoms (all electrons):
               1          2          3          4          5          6
     1  N    7.752480  -0.246448  -0.102977   0.127903  -0.176451   0.011548
     2  N   -0.246448   7.213578   0.215527  -0.136881   0.179954  -0.042690
     3  C   -0.102977   0.215527   5.917415   0.058088  -0.105087   0.409691
     4  C    0.127903  -0.136881   0.058088   5.502832   0.266736  -0.028517
     5  N   -0.176451   0.179954  -0.105087   0.266736   7.315787  -0.001771
     6  H    0.011548  -0.042690   0.409691  -0.028517  -0.001771   0.436240
     7  H    0.026300  -0.015122  -0.029804   0.402175  -0.059287   0.000614
     8  H    0.076831  -0.008326   0.002140   0.002078  -0.014736  -0.000004
     9  C   -0.102982   0.298658  -0.193377  -0.014825   0.060181  -0.009425
    10  O    0.018091  -0.163092  -0.043797   0.038483  -0.006942  -0.003059
    11  O   -0.021726  -0.122961   0.038440   0.002214  -0.013682  -0.000297
    12  H    0.003587  -0.003976  -0.000082   0.000066   0.001221  -0.000000
    13  O   -0.041486  -0.006769   0.000825  -0.000656  -0.011019   0.000017
    14  H    0.006171  -0.003592   0.004360  -0.006208   0.012339   0.000005
               7          8          9         10         11         12
     1  N    0.026300   0.076831  -0.102982   0.018091  -0.021726   0.003587
     2  N   -0.015122  -0.008326   0.298658  -0.163092  -0.122961  -0.003976
     3  C   -0.029804   0.002140  -0.193377  -0.043797   0.038440  -0.000082
     4  C    0.402175   0.002078  -0.014825   0.038483   0.002214   0.000066
     5  N   -0.059287  -0.014736   0.060181  -0.006942  -0.013682   0.001221
     6  H    0.000614  -0.000004  -0.009425  -0.003059  -0.000297  -0.000000
     7  H    0.475127  -0.000004  -0.001105  -0.000201   0.000010  -0.000000
     8  H   -0.000004   0.274602  -0.003159   0.000024  -0.000863  -0.014329
     9  C   -0.001105  -0.003159   4.638215   0.417797   0.157776  -0.000248
    10  O   -0.000201   0.000024   0.417797   8.547195  -0.090794   0.000001
    11  O    0.000010  -0.000863   0.157776  -0.090794   8.517137   0.000495
    12  H   -0.000000  -0.014329  -0.000248   0.000001   0.000495   0.286322
    13  O    0.000029   0.224632   0.001559  -0.001999  -0.043544   0.289432
    14  H   -0.000000  -0.003078   0.003388   0.007093   0.192251  -0.003806
              13         14
     1  N   -0.041486   0.006171
     2  N   -0.006769  -0.003592
     3  C    0.000825   0.004360
     4  C   -0.000656  -0.006208
     5  N   -0.011019   0.012339
     6  H    0.000017   0.000005
     7  H    0.000029  -0.000000
     8  H    0.224632  -0.003078
     9  C    0.001559   0.003388
    10  O   -0.001999   0.007093
    11  O   -0.043544   0.192251
    12  H    0.289432  -0.003806
    13  O    8.424333   0.049870
    14  H    0.049870   0.283911
          Atomic-Atomic Spin Densities.
               1          2          3          4          5          6
     1  N    0.680435  -0.161798   0.150705  -0.037539  -0.256137  -0.001576
     2  N   -0.161798   0.087145  -0.153330   0.024664   0.065926   0.003535
     3  C    0.150705  -0.153330   0.486990  -0.029897  -0.103073  -0.005679
     4  C   -0.037539   0.024664  -0.029897  -0.153412   0.058107   0.001164
     5  N   -0.256137   0.065926  -0.103073   0.058107   0.451795   0.000539
     6  H   -0.001576   0.003535  -0.005679   0.001164   0.000539  -0.013432
     7  H    0.001086  -0.000390  -0.001082   0.003009  -0.001628   0.000007
     8  H    0.001678  -0.001371  -0.000167   0.000206  -0.003181   0.000000
     9  C   -0.047748   0.120856  -0.056690   0.008593   0.008711   0.001372
    10  O    0.009364  -0.028782   0.025008  -0.003011  -0.002420   0.000430
    11  O    0.012860  -0.016084   0.009461  -0.002639  -0.000883   0.000075
    12  H   -0.001400   0.000024  -0.000132   0.000019   0.000241  -0.000000
    13  O   -0.003271   0.002028  -0.000365  -0.000313   0.007751  -0.000004
    14  H    0.000893  -0.001446  -0.000066   0.000162  -0.000635  -0.000000
               7          8          9         10         11         12
     1  N    0.001086   0.001678  -0.047748   0.009364   0.012860  -0.001400
     2  N   -0.000390  -0.001371   0.120856  -0.028782  -0.016084   0.000024
     3  C   -0.001082  -0.000167  -0.056690   0.025008   0.009461  -0.000132
     4  C    0.003009   0.000206   0.008593  -0.003011  -0.002639   0.000019
     5  N   -0.001628  -0.003181   0.008711  -0.002420  -0.000883   0.000241
     6  H    0.000007   0.000000   0.001372   0.000430   0.000075  -0.000000
     7  H    0.002446   0.000000  -0.000006   0.000005  -0.000000   0.000000
     8  H    0.000000  -0.001848  -0.000338   0.000005   0.000441  -0.000433
     9  C   -0.000006  -0.000338   0.293468  -0.100087  -0.047431   0.000240
    10  O    0.000005   0.000005  -0.100087   0.188312   0.014672  -0.000013
    11  O   -0.000000   0.000441  -0.047431   0.014672   0.047620  -0.000190
    12  H    0.000000  -0.000433   0.000240  -0.000013  -0.000190   0.000270
    13  O   -0.000000   0.002265   0.001382   0.000019  -0.001113   0.000811
    14  H    0.000000  -0.000102  -0.000076  -0.000121   0.000567  -0.000066
              13         14
     1  N   -0.003271   0.000893
     2  N    0.002028  -0.001446
     3  C   -0.000365  -0.000066
     4  C   -0.000313   0.000162
     5  N    0.007751  -0.000635
     6  H   -0.000004  -0.000000
     7  H   -0.000000   0.000000
     8  H    0.002265  -0.000102
     9  C    0.001382  -0.000076
    10  O    0.000019  -0.000121
    11  O   -0.001113   0.000567
    12  H    0.000811  -0.000066
    13  O   -0.003419   0.000749
    14  H    0.000749  -0.000206
 Mulliken charges and spin densities:
               1          2
     1  N   -0.330842   0.347553
     2  N   -0.157861  -0.059024
     3  C   -0.171361   0.321684
     4  C   -0.213489  -0.130886
     5  N   -0.447242   0.225113
     6  H    0.227649  -0.013570
     7  H    0.201271   0.003447
     8  H    0.464191  -0.002844
     9  C    0.747548   0.182248
    10  O   -0.718799   0.103382
    11  O   -0.614456   0.017355
    12  H    0.441318  -0.000629
    13  O   -0.885224   0.006521
    14  H    0.457296  -0.000349
 Sum of Mulliken charges =  -1.00000   1.00000
 Mulliken charges and spin densities with hydrogens summed into heavy atoms:
               1          2
     1  N   -0.330842   0.347553
     2  N   -0.157861  -0.059024
     3  C    0.056288   0.308114
     4  C   -0.012218  -0.127439
     5  N   -0.447242   0.225113
     9  C    0.747548   0.182248
    10  O   -0.718799   0.103382
    11  O   -0.157160   0.017006
    13  O    0.020286   0.003048
 Electronic spatial extent (au):  <R**2>=           1237.7110
 Charge=             -1.0000 electrons
 Dipole moment (field-independent basis, Debye):
    X=              1.9298    Y=             -2.2582    Z=              3.0372  Tot=              4.2483
 Quadrupole moment (field-independent basis, Debye-Ang):
   XX=            -61.4346   YY=            -82.9788   ZZ=            -55.0761
   XY=              9.2138   XZ=             -4.3120   YZ=             -5.8838
 Traceless Quadrupole moment (field-independent basis, Debye-Ang):
   XX=              5.0619   YY=            -16.4823   ZZ=             11.4204
   XY=              9.2138   XZ=             -4.3120   YZ=             -5.8838
 Octapole moment (field-independent basis, Debye-Ang**2):
  XXX=             16.4107  YYY=            -26.3205  ZZZ=              4.5499  XYY=              1.4956
  XXY=              4.8857  XXZ=             17.8364  XZZ=            -15.7264  YZZ=             -4.2220
  YYZ=             11.4573  XYZ=              9.9144
 Hexadecapole moment (field-independent basis, Debye-Ang**3):
 XXXX=           -823.8965 YYYY=           -872.9962 ZZZZ=            -69.4148 XXXY=             12.8726
 XXXZ=            -26.8607 YYYX=             61.0056 YYYZ=            -33.9550 ZZZX=            -12.4957
 ZZZY=            -13.2031 XXYY=           -296.1039 XXZZ=           -151.6190 YYZZ=           -121.5465
 XXYZ=            -27.2865 YYXZ=            -19.3771 ZZXY=             18.4582
 N-N= 4.530651000165D+02 E-N=-2.105868203991D+03  KE= 5.029607533373D+02
                          Isotropic Fermi Contact Couplings
        Atom                 a.u.       MegaHertz       Gauss      10(-4) cm-1
     1  N(14)              0.08633      27.89215       9.95261       9.30382
     2  N(14)             -0.02519      -8.13914      -2.90425      -2.71492
     3  C(13)              0.04361      49.03123      17.49556      16.35506
     4  C(13)             -0.02705     -30.41114     -10.85145     -10.14407
     5  N(14)              0.05164      16.68396       5.95325       5.56517
     6  H(1)              -0.00460     -20.56803      -7.33918      -6.86076
     7  H(1)               0.00085       3.81537       1.36142       1.27267
     8  H(1)              -0.00019      -0.86542      -0.30880      -0.28867
     9  C(13)              0.03218      36.17230      12.90718      12.06578
    10  O(17)              0.02592     -15.71501      -5.60751      -5.24196
    11  O(17)              0.00406      -2.45936      -0.87756      -0.82035
    12  H(1)              -0.00001      -0.06378      -0.02276      -0.02128
    13  O(17)             -0.00148       0.90000       0.32114       0.30021
    14  H(1)              -0.00014      -0.61045      -0.21782      -0.20362
 --------------------------------------------------------
       Center         ----  Spin Dipole Couplings  ----
                      3XX-RR        3YY-RR        3ZZ-RR
 --------------------------------------------------------
     1   Atom       -0.396122     -0.372352      0.768474
     2   Atom       -0.042157     -0.030038      0.072195
     3   Atom       -0.134456     -0.127937      0.262393
     4   Atom        0.044984      0.045709     -0.090693
     5   Atom       -0.236137     -0.226455      0.462591
     6   Atom       -0.014001      0.015375     -0.001374
     7   Atom        0.002121      0.003081     -0.005202
     8   Atom        0.012194     -0.002500     -0.009694
     9   Atom       -0.117178     -0.109836      0.227014
    10   Atom       -0.200091     -0.222924      0.423015
    11   Atom       -0.072043     -0.057285      0.129328
    12   Atom        0.002126     -0.000794     -0.001332
    13   Atom        0.007232     -0.004180     -0.003052
    14   Atom        0.004370      0.002770     -0.007140
 --------------------------------------------------------
                        XY            XZ            YZ
 --------------------------------------------------------
     1   Atom        0.014803     -0.119812     -0.168889
     2   Atom       -0.011489     -0.007189     -0.014733
     3   Atom        0.011263     -0.042126     -0.054998
     4   Atom        0.005105      0.016456      0.020020
     5   Atom        0.015432     -0.073954     -0.096957
     6   Atom        0.014535      0.000914      0.004097
     7   Atom        0.003175      0.001334      0.001524
     8   Atom        0.012167     -0.000319     -0.000589
     9   Atom       -0.003566     -0.039254     -0.031785
    10   Atom        0.001268     -0.056599     -0.051680
    11   Atom       -0.003363     -0.017382      0.001915
    12   Atom        0.002695     -0.002394     -0.001473
    13   Atom        0.009014      0.008255      0.003286
    14   Atom        0.001774     -0.000494      0.000956
 --------------------------------------------------------


 ---------------------------------------------------------------------------------
              Anisotropic Spin Dipole Couplings in Principal Axis System
 ---------------------------------------------------------------------------------

       Atom             a.u.   MegaHertz   Gauss  10(-4) cm-1        Axes

              Baa    -0.4088   -15.766    -5.626    -5.259  0.9735  0.1904  0.1264
     1 N(14)  Bbb    -0.3963   -15.284    -5.454    -5.098 -0.2055  0.9713  0.1197
              Bcc     0.8051    31.050    11.079    10.357 -0.1000 -0.1425  0.9847
 
              Baa    -0.0507    -1.954    -0.697    -0.652  0.8311  0.5443  0.1139
     2 N(14)  Bbb    -0.0239    -0.921    -0.329    -0.307 -0.5540  0.8281  0.0855
              Bcc     0.0745     2.875     1.026     0.959 -0.0478 -0.1342  0.9898
 
              Baa    -0.1429   -19.179    -6.844    -6.397  0.8049 -0.5934  0.0031
     3 C(13)  Bbb    -0.1316   -17.666    -6.304    -5.893  0.5840  0.7931  0.1731
              Bcc     0.2746    36.845    13.147    12.290 -0.1052 -0.1375  0.9849
 
              Baa    -0.0953   -12.789    -4.563    -4.266 -0.1105 -0.1358  0.9846
     4 C(13)  Bbb     0.0402     5.400     1.927     1.801  0.7456 -0.6663 -0.0082
              Bcc     0.0551     7.388     2.636     2.465  0.6571  0.7332  0.1749
 
              Baa    -0.2475    -9.545    -3.406    -3.184  0.8253 -0.5647  0.0088
     5 N(14)  Bbb    -0.2364    -9.116    -3.253    -3.041  0.5551  0.8139  0.1716
              Bcc     0.4839    18.662     6.659     6.225 -0.1041 -0.1367  0.9851
 
              Baa    -0.0200   -10.674    -3.809    -3.560  0.9227 -0.3836  0.0391
     6 H(1)   Bbb    -0.0021    -1.108    -0.395    -0.370 -0.1023 -0.1458  0.9840
              Bcc     0.0221    11.781     4.204     3.930  0.3718  0.9119  0.1738
 
              Baa    -0.0056    -2.968    -1.059    -0.990 -0.1170 -0.1306  0.9845
     7 H(1)   Bbb    -0.0006    -0.325    -0.116    -0.109  0.7574 -0.6529  0.0034
              Bcc     0.0062     3.293     1.175     1.099  0.6424  0.7461  0.1753
 
              Baa    -0.0099    -5.298    -1.891    -1.767 -0.2477  0.4726  0.8457
     8 H(1)   Bbb    -0.0091    -4.877    -1.740    -1.627 -0.4251  0.7314 -0.5332
              Bcc     0.0191    10.176     3.631     3.394  0.8706  0.4916 -0.0197
 
              Baa    -0.1255   -16.840    -6.009    -5.617  0.8656  0.4808  0.1397
     9 C(13)  Bbb    -0.1088   -14.595    -5.208    -4.868 -0.4885  0.8722  0.0254
              Bcc     0.2343    31.436    11.217    10.486 -0.1096 -0.0903  0.9899
 
              Baa    -0.2275    16.461     5.874     5.491  0.1416  0.9858  0.0906
    10 O(17)  Bbb    -0.2047    14.811     5.285     4.940  0.9859 -0.1487  0.0767
              Bcc     0.4322   -31.272   -11.159   -10.431 -0.0890 -0.0785  0.9929
 
              Baa    -0.0741     5.364     1.914     1.789  0.9791  0.1861  0.0819
    11 O(17)  Bbb    -0.0567     4.103     1.464     1.369 -0.1844  0.9825 -0.0273
              Bcc     0.1308    -9.468    -3.378    -3.158 -0.0855  0.0117  0.9963
 
              Baa    -0.0026    -1.382    -0.493    -0.461  0.2455  0.3673  0.8971
    12 H(1)   Bbb    -0.0024    -1.276    -0.455    -0.426 -0.5705  0.8030 -0.1727
              Bcc     0.0050     2.658     0.949     0.887  0.7838  0.4694 -0.4067
 
              Baa    -0.0096     0.691     0.247     0.231 -0.5706  0.7436  0.3485
    13 O(17)  Bbb    -0.0067     0.483     0.172     0.161 -0.1625 -0.5182  0.8397
              Bcc     0.0162    -1.175    -0.419    -0.392  0.8050  0.4225  0.4165
 
              Baa    -0.0073    -3.879    -1.384    -1.294  0.0581 -0.1048  0.9928
    14 H(1)   Bbb     0.0018     0.935     0.334     0.312 -0.5415  0.8322  0.1195
              Bcc     0.0055     2.943     1.050     0.982  0.8387  0.5445  0.0084
 

 ---------------------------------------------------------------------------------

 D1PCM: PCM CHGder 1st derivatives, ID1Alg=3 FixD1E=F DoIter=F DoCFld=F I1PDM=0.
 Calling FoFJK, ICntrl=      2127 FMM=F ISym2X=0 I1Cent= 0 IOpClX= 1 NMat=1 NMatS=1 NMatT=0.
 ***** Axes restored to original set *****
 -------------------------------------------------------------------
 Center     Atomic                   Forces (Hartrees/Bohr)
 Number     Number              X              Y              Z
 -------------------------------------------------------------------
      1        7           0.000397320   -0.000021227   -0.000039982
      2        7          -0.000325061    0.000100976   -0.000010934
      3        6           0.000082149    0.000023544    0.000072311
      4        6          -0.000083385   -0.000053240   -0.000009250
      5        7          -0.000103921    0.000054582    0.000022430
      6        1          -0.000036988   -0.000045757   -0.000035812
      7        1          -0.000028710   -0.000012656    0.000006130
      8        1          -0.000343473   -0.000048421   -0.000157529
      9        6           0.000082022    0.000052897   -0.000012355
     10        8           0.000010907   -0.000040218   -0.000006948
     11        8           0.001072161   -0.000397984    0.000043441
     12        1           0.000060200   -0.000060691    0.000047985
     13        8           0.000914588    0.000052474    0.000045596
     14        1          -0.001697809    0.000395720    0.000034916
 -------------------------------------------------------------------
 Cartesian Forces:  Max     0.001697809 RMS     0.000367619

 GradGradGradGradGradGradGradGradGradGradGradGradGradGradGradGradGradGrad
 Berny optimization.
 FormGI is forming the generalized inverse of G from B-inverse, IUseBI=4.
 Internal  Forces:  Max     0.000869220 RMS     0.000175045
 Search for a local minimum.
 Step number   1 out of a maximum of   82
 All quantities printed in internal units (Hartrees-Bohrs-Radians)
 Mixed Optimization -- En-DIIS/RFO-DIIS
 Second derivative matrix not updated -- first step.
 ITU=  0
     Eigenvalues ---    0.00496   0.00657   0.01385   0.01451   0.01894
     Eigenvalues ---    0.01943   0.02118   0.02223   0.02336   0.02415
     Eigenvalues ---    0.04712   0.06626   0.07343   0.07913   0.10762
     Eigenvalues ---    0.13551   0.15999   0.16000   0.17378   0.22282
     Eigenvalues ---    0.22825   0.23677   0.24991   0.35883   0.36430
     Eigenvalues ---    0.38216   0.43406   0.45335   0.47343   0.48672
     Eigenvalues ---    0.51528   0.52991   0.54001   0.54177   0.54420
     Eigenvalues ---    0.84157
 RFO step:  Lambda=-2.32924660D-05 EMin= 4.95645587D-03
 Linear search not attempted -- first point.
 Iteration  1 RMS(Cart)=  0.00214562 RMS(Int)=  0.00001462
 Iteration  2 RMS(Cart)=  0.00001052 RMS(Int)=  0.00000415
 Iteration  3 RMS(Cart)=  0.00000000 RMS(Int)=  0.00000415
 Variable       Old X    -DE/DX   Delta X   Delta X   Delta X     New X
                                 (Linear)    (Quad)   (Total)
    R1        2.64391   0.00011   0.00000   0.00032   0.00032   2.64423
    R2        2.54485   0.00019   0.00000   0.00039   0.00038   2.54523
    R3        3.28379   0.00003   0.00000   0.00128   0.00128   3.28507
    R4        2.64043  -0.00003   0.00000  -0.00011  -0.00011   2.64033
    R5        2.55430   0.00021   0.00000   0.00032   0.00032   2.55462
    R6        2.59719  -0.00000   0.00000  -0.00004  -0.00004   2.59714
    R7        2.03415   0.00005   0.00000   0.00014   0.00014   2.03429
    R8        2.54676   0.00013   0.00000   0.00024   0.00024   2.54700
    R9        2.04265   0.00003   0.00000   0.00007   0.00007   2.04273
   R10        1.87925   0.00065   0.00000   0.00201   0.00201   1.88126
   R11        3.44482  -0.00025   0.00000  -0.00879  -0.00879   3.43603
   R12        2.35748   0.00003   0.00000   0.00004   0.00004   2.35752
   R13        2.55282  -0.00003   0.00000  -0.00017  -0.00017   2.55265
   R14        1.86569   0.00008   0.00000   0.00010   0.00011   1.86579
   R15        1.82571   0.00004   0.00000   0.00008   0.00008   1.82579
   R16        3.34730  -0.00003   0.00000  -0.00222  -0.00221   3.34508
    A1        1.86432  -0.00013   0.00000  -0.00062  -0.00062   1.86369
    A2        2.12028   0.00006   0.00000   0.00068   0.00067   2.12095
    A3        2.20863   0.00007   0.00000   0.00030   0.00031   2.20894
    A4        1.90547   0.00010   0.00000   0.00046   0.00046   1.90593
    A5        2.17757  -0.00004   0.00000  -0.00033  -0.00033   2.17724
    A6        2.19965  -0.00006   0.00000  -0.00011  -0.00011   2.19954
    A7        1.81488   0.00002   0.00000  -0.00007  -0.00007   1.81480
    A8        2.13386   0.00000   0.00000   0.00010   0.00010   2.13396
    A9        2.33442  -0.00002   0.00000  -0.00003  -0.00003   2.33439
   A10        1.94330  -0.00001   0.00000  -0.00009  -0.00009   1.94321
   A11        2.22743  -0.00002   0.00000  -0.00014  -0.00014   2.22729
   A12        2.11246   0.00004   0.00000   0.00023   0.00023   2.11268
   A13        1.89668   0.00003   0.00000   0.00031   0.00031   1.89699
   A14        2.72320  -0.00022   0.00000   0.00007   0.00007   2.72326
   A15        1.48693  -0.00023   0.00000  -0.00248  -0.00248   1.48445
   A16        2.13154   0.00004   0.00000   0.00045   0.00045   2.13200
   A17        2.06373  -0.00001   0.00000  -0.00061  -0.00061   2.06312
   A18        2.08751  -0.00002   0.00000   0.00021   0.00021   2.08772
   A19        2.02502  -0.00040   0.00000  -0.00412  -0.00411   2.02091
   A20        1.85493   0.00007   0.00000   0.00070   0.00069   1.85562
   A21        1.93676   0.00000   0.00000  -0.00062  -0.00062   1.93614
   A22        2.58163   0.00064   0.00000   0.00862   0.00862   2.59026
   A23        3.14159   0.00087   0.00000   0.01015   0.01015   3.15174
   A24        3.14159   0.00008   0.00000   0.00291   0.00289   3.14448
    D1        0.01596  -0.00001   0.00000   0.00067   0.00068   0.01664
    D2        3.12552   0.00000   0.00000   0.00145   0.00145   3.12696
    D3        2.74111  -0.00001   0.00000   0.00149   0.00149   2.74259
    D4       -0.43252  -0.00000   0.00000   0.00226   0.00226  -0.43026
    D5       -0.01412   0.00001   0.00000  -0.00055  -0.00055  -0.01466
    D6       -2.71189   0.00002   0.00000  -0.00151  -0.00151  -2.71340
    D7        0.52545   0.00001   0.00000  -0.00255  -0.00254   0.52291
    D8        0.37788  -0.00000   0.00000  -0.00359  -0.00358   0.37430
    D9       -3.11905  -0.00004   0.00000  -0.00176  -0.00176  -3.12081
   D10        3.01657  -0.00006   0.00000  -0.00281  -0.00280   3.01376
   D11       -0.01128   0.00001   0.00000  -0.00053  -0.00053  -0.01181
   D12        3.13761  -0.00001   0.00000  -0.00089  -0.00089   3.13672
   D13       -3.12033  -0.00000   0.00000  -0.00130  -0.00131  -3.12164
   D14        0.02856  -0.00002   0.00000  -0.00167  -0.00167   0.02689
   D15       -3.07464  -0.00004   0.00000  -0.00062  -0.00062  -3.07526
   D16        0.03611  -0.00004   0.00000   0.00177   0.00177   0.03788
   D17        0.02953  -0.00002   0.00000   0.00029   0.00029   0.02982
   D18        3.14028  -0.00002   0.00000   0.00268   0.00268  -3.14022
   D19        0.00260  -0.00001   0.00000   0.00019   0.00019   0.00278
   D20       -3.13872  -0.00001   0.00000   0.00018   0.00018  -3.13855
   D21        3.13565   0.00002   0.00000   0.00061   0.00061   3.13626
   D22       -0.00567   0.00002   0.00000   0.00060   0.00060  -0.00507
   D23        0.00737   0.00000   0.00000   0.00023   0.00024   0.00760
   D24       -3.13448   0.00000   0.00000   0.00024   0.00024  -3.13423
   D25       -2.04620   0.00005   0.00000   0.00081   0.00081  -2.04539
   D26        0.00000   0.00001   0.00000   0.00087   0.00086   0.00086
   D27       -0.06318   0.00003   0.00000   0.00408   0.00409  -0.05909
   D28        0.29342  -0.00009   0.00000  -0.00413  -0.00413   0.28928
   D29       -2.87821  -0.00009   0.00000  -0.00180  -0.00180  -2.88002
   D30        1.51622   0.00010   0.00000   0.00381   0.00382   1.52004
   D31       -0.27492  -0.00001   0.00000  -0.00066  -0.00066  -0.27559
   D32        1.42779  -0.00025   0.00000  -0.00458  -0.00458   1.42322
         Item               Value     Threshold  Converged?
 Maximum Force            0.000869     0.000450     NO 
 RMS     Force            0.000175     0.000300     YES
 Maximum Displacement     0.010826     0.001800     NO 
 RMS     Displacement     0.002146     0.001200     NO 
 Predicted change in Energy=-1.165644D-05
 GradGradGradGradGradGradGradGradGradGradGradGradGradGradGradGradGradGrad

                          Input orientation:                          
 ---------------------------------------------------------------------
 Center     Atomic      Atomic             Coordinates (Angstroms)
 Number     Number       Type             X           Y           Z
 ---------------------------------------------------------------------
      1          7           0       -0.262182    1.016843   -0.235763
      2          7           0       -0.403090   -0.358368   -0.019220
      3          6           0       -1.754948   -0.658035    0.167457
      4          6           0       -2.381738    0.561242    0.070839
      5          7           0       -1.496562    1.550632   -0.161908
      6          1           0       -2.101798   -1.661243    0.346682
      7          1           0       -3.438897    0.768523    0.159911
      8          1           0        1.240265    1.835881    0.070525
      9          6           0        0.614270   -1.248491   -0.031392
     10          8           0        0.425207   -2.474713    0.099030
     11          8           0        1.867586   -0.783069   -0.224387
     12          1           0        2.416951    2.126819    1.068444
     13          8           0        2.229112    1.925871    0.142263
     14          1           0        1.990499    0.187588   -0.091917
 ---------------------------------------------------------------------
                    Distance matrix (angstroms):
                    1          2          3          4          5
     1  N    0.000000
     2  N    1.399268   0.000000
     3  C    2.279507   1.397201   0.000000
     4  C    2.189543   2.183768   1.374349   0.000000
     5  N    1.346878   2.204614   2.247989   1.347813   0.000000
     6  H    3.300844   2.171860   1.076500   2.256966   3.307735
     7  H    3.210878   3.243162   2.206991   1.080964   2.118472
     8  H    1.738385   2.742881   3.898758   3.839741   2.761451
     9  C    2.437554   1.351846   2.449770   3.501664   3.508238
    10  O    3.574291   2.275736   2.838676   4.134823   4.468186
    11  O    2.788498   2.319145   3.645810   4.466664   4.094821
    12  H    3.179741   3.913029   5.096266   5.145256   4.142625
    13  O    2.678764   3.488883   4.748677   4.809080   3.756856
    14  H    2.404771   2.456139   3.848471   4.391192   3.744647
                    6          7          8          9         10
     6  H    0.000000
     7  H    2.779655   0.000000
     8  H    4.845155   4.800187   0.000000
     9  C    2.773144   4.531347   3.148905   0.000000
    10  O    2.666237   5.045155   4.387067   1.247548   0.000000
    11  O    4.105280   5.542011   2.709133   1.350802   2.246490
    12  H    5.940492   6.079585   1.570056   3.981458   5.106946
    13  O    5.627251   5.784988   0.995521   3.565731   4.756162
    14  H    4.511922   5.466191   1.818271   1.989973   3.094260
                   11         12         13         14
    11  O    0.000000
    12  H    3.231201   0.000000
    13  O    2.757442   0.966165   0.000000
    14  H    0.987335   2.299764   1.770142   0.000000
 Stoichiometry    C3H5N3O3(1-,2)
 Framework group  C1[X(C3H5N3O3)]
 Deg. of freedom    36
 Full point group                 C1      NOp   1
 Largest Abelian subgroup         C1      NOp   1
 Largest concise Abelian subgroup C1      NOp   1
                         Standard orientation:                         
 ---------------------------------------------------------------------
 Center     Atomic      Atomic             Coordinates (Angstroms)
 Number     Number       Type             X           Y           Z
 ---------------------------------------------------------------------
      1          7           0        0.260275   -1.017473   -0.235940
      2          7           0        0.404057    0.357441   -0.019398
      3          6           0        1.756539    0.654281    0.167279
      4          6           0        2.380779   -0.566303    0.070661
      5          7           0        1.493537   -1.553841   -0.162086
      6          1           0        2.105485    1.656762    0.346504
      7          1           0        3.437502   -0.775794    0.159733
      8          1           0       -1.243880   -1.833368    0.070347
      9          6           0       -0.611439    1.249688   -0.031570
     10          8           0       -0.419814    2.475513    0.098853
     11          8           0       -1.865726    0.786887   -0.224564
     12          1           0       -2.421172   -2.121846    1.068266
     13          8           0       -2.232913   -1.921291    0.142085
     14          1           0       -1.990668   -0.183511   -0.092095
 ---------------------------------------------------------------------
 Rotational constants (GHZ):           1.9523737           1.6017057           0.8926704
 Standard basis: 6-31+G(d,p) (6D, 7F)
 There are   196 symmetry adapted cartesian basis functions of A   symmetry.
 There are   196 symmetry adapted basis functions of A   symmetry.
   196 basis functions,   323 primitive gaussians,   196 cartesian basis functions
    35 alpha electrons       34 beta electrons
       nuclear repulsion energy       453.0310684656 Hartrees.
 NAtoms=   14 NActive=   14 NUniq=   14 SFac= 1.00D+00 NAtFMM=   60 NAOKFM=F Big=F
 Integral buffers will be    131072 words long.
 Raffenetti 2 integral format.
 Two-electron integral symmetry is turned on.
 ------------------------------------------------------------------------------
 Polarizable Continuum Model (PCM)
 =================================
 Model                : PCM.
 Atomic radii         : SMD-Coulomb.
 Polarization charges : Total charges.
 Charge compensation  : None.
 Solution method      : On-the-fly selection.
 Cavity type          : VdW (van der Waals Surface) (Alpha=1.000).
 Cavity algorithm     : GePol (No added spheres)
                        Default sphere list used, NSphG=   14.
                        Lebedev-Laikov grids with approx.  5.0 points / Ang**2.
                        Smoothing algorithm: York/Karplus (Gamma=1.0000).
                        Polarization charges: spherical gaussians, with
                                              point-specific exponents (IZeta= 3).
                        Self-potential: point-specific (ISelfS= 7).
                        Self-field    : sphere-specific E.n sum rule (ISelfD= 2).
 1st derivatives      : Analytical E(r).r(x)/FMM algorithm (CHGder, D1EAlg=3).
                        Cavity 1st derivative terms included.
 Solvent              : Water, Eps=  78.355300 Eps(inf)=   1.777849
 ------------------------------------------------------------------------------
 Spheres list:
 ISph  on   Nord     Re0    Alpha      Xe            Ye            Ze
    1   N      1    1.8900  1.000      0.260275     -1.017473     -0.235940
    2   N      2    1.8900  1.000      0.404057      0.357441     -0.019398
    3   C      3    1.8500  1.000      1.756539      0.654281      0.167279
    4   C      4    1.8500  1.000      2.380779     -0.566303      0.070661
    5   N      5    1.8900  1.000      1.493537     -1.553841     -0.162086
    6   H      6    1.2000  1.000      2.105485      1.656762      0.346504
    7   H      7    1.2000  1.000      3.437502     -0.775794      0.159733
    8   H      8    1.2000  1.000     -1.243880     -1.833368      0.070347
    9   C      9    1.8500  1.000     -0.611439      1.249688     -0.031570
   10   O     10    1.5200  1.000     -0.419814      2.475513      0.098853
   11   O     11    1.5200  1.000     -1.865726      0.786887     -0.224564
   12   H     12    1.2000  1.000     -2.421172     -2.121846      1.068266
   13   O     13    1.5200  1.000     -2.232913     -1.921291      0.142085
   14   H     14    1.2000  1.000     -1.990668     -0.183511     -0.092095
 ------------------------------------------------------------------------------
 ------------------------------------------------------------------------------
 Atomic radii for non-electrostatic terms: SMD-CDS.
 ------------------------------------------------------------------------------
 Nuclear repulsion after PCM non-electrostatic terms =      453.0379277047 Hartrees.
 One-electron integrals computed using PRISM.
 NBasis=   196 RedAO= T EigKep=  2.44D-05  NBF=   196
 NBsUse=   196 1.00D-06 EigRej= -1.00D+00 NBFU=   196
 Initial guess from the checkpoint file:  "/scratch/gongke2021/PC/Gau-28592.chk"
 B after Tr=     0.000000    0.000000    0.000000
         Rot=    0.999999   -0.000008   -0.000025    0.001055 Ang=  -0.12 deg.
 Initial guess <Sx>= 0.0000 <Sy>= 0.0000 <Sz>= 0.5000 <S**2>= 0.7662 S= 0.5080
 Requested convergence on RMS density matrix=1.00D-08 within 128 cycles.
 Requested convergence on MAX density matrix=1.00D-06.
 Requested convergence on             energy=1.00D-06.
 No special actions if energy rises.
 Inv3:  Mode=1 IEnd=     4043763.
 Iteration    1 A*A^-1 deviation from unit magnitude is 4.00D-15 for    546.
 Iteration    1 A*A^-1 deviation from orthogonality  is 2.81D-15 for    261     29.
 Iteration    1 A^-1*A deviation from unit magnitude is 4.00D-15 for    546.
 Iteration    1 A^-1*A deviation from orthogonality  is 6.44D-15 for    712    675.
 Error on total polarization charges =  0.05757
 SCF Done:  E(UM062X) =  -507.175564960     A.U. after   12 cycles
            NFock= 12  Conv=0.44D-08     -V/T= 2.0084
 <Sx>= 0.0000 <Sy>= 0.0000 <Sz>= 0.5000 <S**2>= 0.7662 S= 0.5080
 <L.S>=  0.00000000000    
 SMD-CDS (non-electrostatic) energy       (kcal/mol) =       4.30
 (included in total energy above)
 Annihilation of the first spin contaminant:
 S**2 before annihilation     0.7662,   after     0.7501
 D1PCM: PCM CHGder 1st derivatives, ID1Alg=3 FixD1E=F DoIter=F DoCFld=F I1PDM=0.
 Calling FoFJK, ICntrl=      2127 FMM=F ISym2X=0 I1Cent= 0 IOpClX= 1 NMat=1 NMatS=1 NMatT=0.
 ***** Axes restored to original set *****
 -------------------------------------------------------------------
 Center     Atomic                   Forces (Hartrees/Bohr)
 Number     Number              X              Y              Z
 -------------------------------------------------------------------
      1        7           0.000131885   -0.000136655    0.000108190
      2        7          -0.000077692   -0.000138531   -0.000079568
      3        6           0.000046617    0.000042622    0.000058974
      4        6           0.000047371   -0.000006257   -0.000039125
      5        7          -0.000098999    0.000136185   -0.000011614
      6        1          -0.000003283    0.000002298   -0.000030837
      7        1           0.000008983    0.000014189   -0.000002178
      8        1           0.000454162    0.000147362   -0.000016356
      9        6          -0.000015832   -0.000134923    0.000147514
     10        8          -0.000046831    0.000057872   -0.000081317
     11        8           0.000763572   -0.000124354    0.000081071
     12        1          -0.000032251   -0.000069703    0.000018396
     13        8           0.000000345   -0.000033278   -0.000065827
     14        1          -0.001178047    0.000243171   -0.000087324
 -------------------------------------------------------------------
 Cartesian Forces:  Max     0.001178047 RMS     0.000242618

 GradGradGradGradGradGradGradGradGradGradGradGradGradGradGradGradGradGrad
 Berny optimization.
 Using GEDIIS/GDIIS optimizer.
 FormGI is forming the generalized inverse of G from B-inverse, IUseBI=4.
 Internal  Forces:  Max     0.000546224 RMS     0.000114101
 Search for a local minimum.
 Step number   2 out of a maximum of   82
 All quantities printed in internal units (Hartrees-Bohrs-Radians)
 Mixed Optimization -- En-DIIS/RFO-DIIS
 Swapping is turned off.
 Update second derivatives using D2CorX and points    1    2
 DE= -1.95D-05 DEPred=-1.17D-05 R= 1.68D+00
 TightC=F SS=  1.41D+00  RLast= 2.08D-02 DXNew= 5.0454D-01 6.2531D-02
 Trust test= 1.68D+00 RLast= 2.08D-02 DXMaxT set to 3.00D-01
 ITU=  1  0
     Eigenvalues ---    0.00491   0.00651   0.01128   0.01463   0.01885
     Eigenvalues ---    0.01948   0.01977   0.02157   0.02224   0.02415
     Eigenvalues ---    0.02716   0.06508   0.07222   0.07541   0.09389
     Eigenvalues ---    0.13180   0.15999   0.16013   0.17726   0.22393
     Eigenvalues ---    0.22882   0.23947   0.25136   0.35888   0.36442
     Eigenvalues ---    0.38159   0.43366   0.47187   0.48641   0.51185
     Eigenvalues ---    0.51943   0.53450   0.54164   0.54393   0.55578
     Eigenvalues ---    0.84285
 En-DIIS/RFO-DIIS/Sim-DIIS IScMMF=       -3 using points:     2    1
 RFO step:  Lambda=-3.95002820D-05.
 DidBck=F Rises=F RFO-DIIS coefs:    3.00000   -2.00000
 Iteration  1 RMS(Cart)=  0.00527617 RMS(Int)=  0.00005286
 Iteration  2 RMS(Cart)=  0.00005239 RMS(Int)=  0.00002482
 Iteration  3 RMS(Cart)=  0.00000000 RMS(Int)=  0.00002482
 Variable       Old X    -DE/DX   Delta X   Delta X   Delta X     New X
                                 (Linear)    (Quad)   (Total)
    R1        2.64423   0.00014   0.00064   0.00032   0.00093   2.64516
    R2        2.54523   0.00009   0.00077  -0.00010   0.00067   2.54590
    R3        3.28507   0.00003   0.00255   0.00024   0.00276   3.28783
    R4        2.64033  -0.00006  -0.00021  -0.00025  -0.00047   2.63986
    R5        2.55462   0.00005   0.00064  -0.00031   0.00031   2.55493
    R6        2.59714   0.00002  -0.00009   0.00022   0.00013   2.59727
    R7        2.03429  -0.00000   0.00029  -0.00020   0.00009   2.03438
    R8        2.54700  -0.00001   0.00048  -0.00031   0.00017   2.54717
    R9        2.04273  -0.00001   0.00015  -0.00014   0.00001   2.04274
   R10        1.88126  -0.00022   0.00403  -0.00280   0.00122   1.88249
   R11        3.43603  -0.00020  -0.01758  -0.00421  -0.02179   3.41424
   R12        2.35752  -0.00006   0.00008  -0.00024  -0.00016   2.35737
   R13        2.55265   0.00006  -0.00034   0.00036   0.00003   2.55268
   R14        1.86579   0.00002   0.00021  -0.00002   0.00023   1.86602
   R15        1.82579  -0.00000   0.00016  -0.00012   0.00004   1.82583
   R16        3.34508  -0.00002  -0.00442  -0.00076  -0.00516   3.33993
    A1        1.86369   0.00001  -0.00125   0.00138   0.00013   1.86383
    A2        2.12095   0.00009   0.00134   0.00201   0.00328   2.12423
    A3        2.20894  -0.00009   0.00062  -0.00047   0.00017   2.20911
    A4        1.90593  -0.00004   0.00093  -0.00103  -0.00010   1.90584
    A5        2.17724   0.00002  -0.00066   0.00006  -0.00065   2.17659
    A6        2.19954   0.00002  -0.00022   0.00100   0.00081   2.20035
    A7        1.81480   0.00003  -0.00014   0.00021   0.00006   1.81486
    A8        2.13396  -0.00002   0.00021  -0.00026  -0.00005   2.13390
    A9        2.33439  -0.00001  -0.00006   0.00006   0.00001   2.33441
   A10        1.94321   0.00006  -0.00018   0.00072   0.00054   1.94375
   A11        2.22729  -0.00002  -0.00027  -0.00003  -0.00031   2.22699
   A12        2.11268  -0.00003   0.00046  -0.00069  -0.00023   2.11245
   A13        1.89699  -0.00006   0.00062  -0.00124  -0.00062   1.89637
   A14        2.72326  -0.00015   0.00013  -0.00043  -0.00032   2.72295
   A15        1.48445  -0.00026  -0.00496  -0.00248  -0.00746   1.47699
   A16        2.13200   0.00002   0.00091   0.00009   0.00100   2.13300
   A17        2.06312  -0.00013  -0.00121  -0.00166  -0.00288   2.06024
   A18        2.08772   0.00011   0.00043   0.00139   0.00182   2.08954
   A19        2.02091  -0.00025  -0.00822  -0.00086  -0.00904   2.01187
   A20        1.85562  -0.00004   0.00138  -0.00166  -0.00033   1.85530
   A21        1.93614  -0.00004  -0.00124  -0.00061  -0.00185   1.93428
   A22        2.59026   0.00055   0.01725   0.00480   0.02207   2.61233
   A23        3.15174   0.00050   0.02030   0.00451   0.02484   3.17658
   A24        3.14448   0.00004   0.00577  -0.00215   0.00350   3.14798
    D1        0.01664  -0.00001   0.00135  -0.00208  -0.00072   0.01592
    D2        3.12696   0.00001   0.00290  -0.00140   0.00150   3.12847
    D3        2.74259  -0.00001   0.00297   0.00409   0.00710   2.74969
    D4       -0.43026   0.00001   0.00452   0.00478   0.00933  -0.42094
    D5       -0.01466   0.00001  -0.00110   0.00175   0.00064  -0.01402
    D6       -2.71340  -0.00006  -0.00301  -0.00564  -0.00864  -2.72203
    D7        0.52291  -0.00001  -0.00509  -0.00461  -0.00970   0.51321
    D8        0.37430  -0.00002  -0.00717  -0.00205  -0.00921   0.36509
    D9       -3.12081   0.00003  -0.00353   0.00349  -0.00003  -3.12084
   D10        3.01376   0.00002  -0.00561   0.00605   0.00047   3.01423
   D11       -0.01181   0.00001  -0.00105   0.00158   0.00052  -0.01129
   D12        3.13672  -0.00000  -0.00178   0.00044  -0.00134   3.13537
   D13       -3.12164  -0.00001  -0.00261   0.00090  -0.00172  -3.12335
   D14        0.02689  -0.00002  -0.00334  -0.00024  -0.00358   0.02331
   D15       -3.07526   0.00001  -0.00124   0.00392   0.00270  -3.07256
   D16        0.03788  -0.00004   0.00353  -0.00346   0.00010   0.03798
   D17        0.02982   0.00003   0.00058   0.00469   0.00528   0.03510
   D18       -3.14022  -0.00002   0.00536  -0.00270   0.00268  -3.13755
   D19        0.00278  -0.00000   0.00037  -0.00049  -0.00012   0.00266
   D20       -3.13855  -0.00000   0.00035  -0.00075  -0.00039  -3.13894
   D21        3.13626   0.00001   0.00122   0.00084   0.00205   3.13831
   D22       -0.00507   0.00001   0.00120   0.00058   0.00178  -0.00329
   D23        0.00760  -0.00000   0.00047  -0.00081  -0.00033   0.00727
   D24       -3.13423  -0.00000   0.00049  -0.00057  -0.00008  -3.13431
   D25       -2.04539   0.00005   0.00163   0.00356   0.00518  -2.04021
   D26        0.00086   0.00001   0.00172  -0.00085   0.00083   0.00169
   D27       -0.05909   0.00001   0.00818  -0.00330   0.00492  -0.05418
   D28        0.28928  -0.00008  -0.00826  -0.00177  -0.01002   0.27927
   D29       -2.88002  -0.00013  -0.00361  -0.00899  -0.01257  -2.89258
   D30        1.52004   0.00001   0.00764  -0.00124   0.00643   1.52647
   D31       -0.27559   0.00001  -0.00133   0.00521   0.00385  -0.27174
   D32        1.42322  -0.00009  -0.00915  -0.00236  -0.01150   1.41172
         Item               Value     Threshold  Converged?
 Maximum Force            0.000546     0.000450     NO 
 RMS     Force            0.000114     0.000300     YES
 Maximum Displacement     0.027527     0.001800     NO 
 RMS     Displacement     0.005275     0.001200     NO 
 Predicted change in Energy=-1.979076D-05
 GradGradGradGradGradGradGradGradGradGradGradGradGradGradGradGradGradGrad

                          Input orientation:                          
 ---------------------------------------------------------------------
 Center     Atomic      Atomic             Coordinates (Angstroms)
 Number     Number       Type             X           Y           Z
 ---------------------------------------------------------------------
      1          7           0       -0.261060    1.015912   -0.230849
      2          7           0       -0.403302   -0.360251   -0.018083
      3          6           0       -1.755412   -0.659243    0.165990
      4          6           0       -2.381243    0.560740    0.071116
      5          7           0       -1.495515    1.550580   -0.158105
      6          1           0       -2.103409   -1.662865    0.340893
      7          1           0       -3.438483    0.768203    0.158856
      8          1           0        1.243503    1.836808    0.068294
      9          6           0        0.614446   -1.250198   -0.029047
     10          8           0        0.426247   -2.477159    0.094703
     11          8           0        1.866926   -0.780333   -0.216747
     12          1           0        2.422861    2.128157    1.063484
     13          8           0        2.233183    1.926558    0.137795
     14          1           0        1.975933    0.192573   -0.087736
 ---------------------------------------------------------------------
                    Distance matrix (angstroms):
                    1          2          3          4          5
     1  N    0.000000
     2  N    1.399760   0.000000
     3  C    2.279630   1.396954   0.000000
     4  C    2.189416   2.183675   1.374418   0.000000
     5  N    1.347234   2.205405   2.248533   1.347902   0.000000
     6  H    3.301059   2.171643   1.076546   2.257076   3.308287
     7  H    3.210802   3.242999   2.206894   1.080969   2.118420
     8  H    1.739847   2.747089   3.902987   3.842804   2.763223
     9  C    2.437723   1.352012   2.450203   3.501955   3.508981
    10  O    3.574902   2.276438   2.840693   4.136592   4.469873
    11  O    2.784783   2.317298   3.644514   4.464110   4.091772
    12  H    3.180537   3.917800   5.102260   5.149855   4.144821
    13  O    2.680750   3.493544   4.753531   4.812778   3.759269
    14  H    2.387992   2.443608   3.835740   4.375587   3.728281
                    6          7          8          9         10
     6  H    0.000000
     7  H    2.779506   0.000000
     8  H    4.850139   4.803240   0.000000
     9  C    2.773786   4.531610   3.151951   0.000000
    10  O    2.668866   5.047042   4.390777   1.247464   0.000000
    11  O    4.105288   5.539531   2.705426   1.350818   2.247616
    12  H    5.948202   6.084667   1.570405   3.984629   5.112136
    13  O    5.633049   5.788784   0.996168   3.569304   4.760211
    14  H    4.501933   5.450510   1.806740   1.984610   3.092294
                   11         12         13         14
    11  O    0.000000
    12  H    3.226044   0.000000
    13  O    2.754470   0.966188   0.000000
    14  H    0.987457   2.295983   1.767413   0.000000
 Stoichiometry    C3H5N3O3(1-,2)
 Framework group  C1[X(C3H5N3O3)]
 Deg. of freedom    36
 Full point group                 C1      NOp   1
 Largest Abelian subgroup         C1      NOp   1
 Largest concise Abelian subgroup C1      NOp   1
                         Standard orientation:                         
 ---------------------------------------------------------------------
 Center     Atomic      Atomic             Coordinates (Angstroms)
 Number     Number       Type             X           Y           Z
 ---------------------------------------------------------------------
      1          7           0        0.254851   -1.018179   -0.231937
      2          7           0        0.406677    0.356931   -0.018983
      3          6           0        1.760813    0.646437    0.165361
      4          6           0        2.378113   -0.577882    0.070452
      5          7           0        1.485523   -1.561476   -0.159040
      6          1           0        2.115791    1.647580    0.340443
      7          1           0        3.433860   -0.792746    0.158352
      8          1           0       -1.255469   -1.828567    0.066846
      9          6           0       -0.604820    1.253976   -0.030020
     10          8           0       -0.408065    2.479576    0.093908
     11          8           0       -1.860522    0.792904   -0.217993
     12          1           0       -2.437010   -2.111776    1.061796
     13          8           0       -2.245765   -1.911401    0.136164
     14          1           0       -1.976354   -0.179231   -0.089116
 ---------------------------------------------------------------------
 Rotational constants (GHZ):           1.9511192           1.6019797           0.8919995
 Standard basis: 6-31+G(d,p) (6D, 7F)
 There are   196 symmetry adapted cartesian basis functions of A   symmetry.
 There are   196 symmetry adapted basis functions of A   symmetry.
   196 basis functions,   323 primitive gaussians,   196 cartesian basis functions
    35 alpha electrons       34 beta electrons
       nuclear repulsion energy       453.0110209231 Hartrees.
 NAtoms=   14 NActive=   14 NUniq=   14 SFac= 1.00D+00 NAtFMM=   60 NAOKFM=F Big=F
 Integral buffers will be    131072 words long.
 Raffenetti 2 integral format.
 Two-electron integral symmetry is turned on.
 ------------------------------------------------------------------------------
 Polarizable Continuum Model (PCM)
 =================================
 Model                : PCM.
 Atomic radii         : SMD-Coulomb.
 Polarization charges : Total charges.
 Charge compensation  : None.
 Solution method      : On-the-fly selection.
 Cavity type          : VdW (van der Waals Surface) (Alpha=1.000).
 Cavity algorithm     : GePol (No added spheres)
                        Default sphere list used, NSphG=   14.
                        Lebedev-Laikov grids with approx.  5.0 points / Ang**2.
                        Smoothing algorithm: York/Karplus (Gamma=1.0000).
                        Polarization charges: spherical gaussians, with
                                              point-specific exponents (IZeta= 3).
                        Self-potential: point-specific (ISelfS= 7).
[...]
 ! D6    D(8,1,5,4)           -172.6061         -DE/DX =    0.0                 !
 ! D7    D(2,1,8,13)            16.315          -DE/DX =    0.0                 !
 ! D8    D(2,1,8,14)             7.3892         -DE/DX =    0.0                 !
 ! D9    D(5,1,8,13)          -172.7275         -DE/DX =    0.0                 !
 ! D10   D(5,1,8,14)           178.3468         -DE/DX =    0.0                 !
 ! D11   D(1,2,3,4)             -0.1633         -DE/DX =    0.0                 !
 ! D12   D(1,2,3,6)            179.9024         -DE/DX =    0.0                 !
 ! D13   D(9,2,3,4)           -179.5108         -DE/DX =    0.0                 !
 ! D14   D(9,2,3,6)              0.5548         -DE/DX =    0.0                 !
 ! D15   D(1,2,9,10)          -178.8743         -DE/DX =    0.0                 !
 ! D16   D(1,2,9,11)             0.7316         -DE/DX =    0.0                 !
 ! D17   D(3,2,9,10)             0.3794         -DE/DX =    0.0                 !
 ! D18   D(3,2,9,11)           179.9853         -DE/DX =    0.0                 !
 ! D19   D(2,3,4,5)              0.0422         -DE/DX =    0.0                 !
 ! D20   D(2,3,4,7)           -179.9579         -DE/DX =    0.0                 !
 ! D21   D(6,3,4,5)            179.9654         -DE/DX =    0.0                 !
 ! D22   D(6,3,4,7)             -0.0348         -DE/DX =    0.0                 !
 ! D23   D(3,4,5,1)              0.0987         -DE/DX =    0.0                 !
 ! D24   D(7,4,5,1)           -179.9011         -DE/DX =    0.0                 !
 ! D25   D(1,8,13,12)         -115.7981         -DE/DX =    0.0                 !
 ! D26   D(14,8,13,11)          -0.035          -DE/DX =    0.0                 !
 ! D27   D(1,8,14,11)           -4.0516         -DE/DX =    0.0                 !
 ! D28   D(2,9,11,14)            3.8718         -DE/DX =    0.0                 !
 ! D29   D(10,9,11,14)        -176.5102         -DE/DX =    0.0                 !
 ! D30   D(9,11,13,12)         100.5055         -DE/DX =    0.0                 !
 ! D31   D(9,11,14,8)           -1.3791         -DE/DX =    0.0                 !
 ! D32   D(14,12,13,8)          77.7235         -DE/DX =    0.0                 !
 --------------------------------------------------------------------------------
 GradGradGradGradGradGradGradGradGradGradGradGradGradGradGradGradGradGrad


 ----------------------------------------------------------------------

 Electric dipole moment (input orientation):
 (Debye = 10**-18 statcoulomb cm , SI units = C m)
                  (au)            (Debye)         (10**-30 SI)
   Tot        0.152299D+01      0.387104D+01      0.129124D+02
   x         -0.716812D+00     -0.182195D+01     -0.607738D+01
   y          0.946801D+00      0.240653D+01      0.802732D+01
   z          0.953538D+00      0.242365D+01      0.808443D+01

 Dipole polarizability, Alpha (input orientation).
 (esu units = cm**3 , SI units = C**2 m**2 J**-1)
 Alpha(0;0):
               (au)            (10**-24 esu)      (10**-40 SI)
   iso        0.121923D+03      0.180672D+02      0.201024D+02
   aniso      0.879823D+02      0.130376D+02      0.145063D+02
   xx         0.139884D+03      0.207287D+02      0.230637D+02
   yx        -0.200013D+02     -0.296389D+01     -0.329777D+01
   yy         0.156940D+03      0.232560D+02      0.258758D+02
   zx        -0.117285D+01     -0.173799D+00     -0.193377D+00
   zy        -0.110967D+01     -0.164435D+00     -0.182959D+00
   zz         0.689464D+02      0.102168D+02      0.113677D+02

 ----------------------------------------------------------------------

 Dipole orientation:
     7         -0.11423002          1.39461342          1.35685100
     7         -0.80056878         -0.73537778         -0.04868807
     6         -3.06584281         -1.70944529          0.89465530
     6         -3.66106585         -0.11700364          2.85842532
     7         -1.91197744          1.71481306          3.12952370
     1         -3.95785262         -3.35474379          0.09728187
     1         -5.28472548         -0.21502016          4.09393710
     1          2.81093570          3.10229036          1.13260861
     6          0.53641615         -1.65305881         -2.01899048
     8         -0.15696815         -3.53586476         -3.25566425
     8          2.69832484         -0.45000013         -2.65776430
     1          5.74385191          3.05102913          1.45027036
     8          4.41725637          3.61879118          0.33201450
     1          3.18248867          0.95024531         -1.53901276

 Electric dipole moment (dipole orientation):
 (Debye = 10**-18 statcoulomb cm , SI units = C m)
                  (au)            (Debye)         (10**-30 SI)
   Tot        0.152299D+01      0.387104D+01      0.129124D+02
   x          0.000000D+00      0.000000D+00      0.000000D+00
   y          0.000000D+00      0.000000D+00      0.000000D+00
   z          0.152299D+01      0.387104D+01      0.129124D+02

 Dipole polarizability, Alpha (dipole orientation).
 (esu units = cm**3 , SI units = C**2 m**2 J**-1)
 Alpha(0;0):
               (au)            (10**-24 esu)      (10**-40 SI)
   iso        0.121923D+03      0.180672D+02      0.201024D+02
   aniso      0.879823D+02      0.130376D+02      0.145063D+02
   xx         0.117363D+03      0.173914D+02      0.193505D+02
   yx         0.953422D+01      0.141283D+01      0.157198D+01
   yy         0.118207D+03      0.175164D+02      0.194897D+02
   zx        -0.288666D+02     -0.427759D+01     -0.475946D+01
   zy         0.400569D+02      0.593582D+01      0.660449D+01
   zz         0.130200D+03      0.192937D+02      0.214671D+02

 ----------------------------------------------------------------------
 1\1\GINC-NODE6\Freq\UM062X\6-31+G(d,p)\C3H5N3O3(1-,2)\GONGKE2021\12-Ju
 l-2023\0\\#N Geom=AllCheck Guess=TCheck SCRF=Check GenChk UM062X/6-31+
 G(d,p) Freq\\test\\-1,2\N,-0.2573607184,0.9980900994,-0.0376972894\N,-
 0.4238260402,-0.3889030712,0.0263978539\C,-1.7869575339,-0.6872093543,
 0.0951907404\C,-2.3964984874,0.5445476314,0.0736973106\N,-1.4901076852
 ,1.5392463527,-0.0034725516\H,-2.1527521955,-1.6981865492,0.150103954\
 H,-3.4557072543,0.7568564529,0.1108936101\H,1.2981512572,1.8917405314,
 0.0547751647\C,0.590642515,-1.279976096,0.008492899\O,0.4024354492,-2.
 5123714528,0.0454631704\O,1.8524742701,-0.7989397141,-0.0604681169\H,2
 .5547519006,2.2548356229,0.9073680649\O,2.2809603745,1.9896773129,0.01
 96846184\H,1.9284701483,0.180072234,-0.0298664284\\Version=ES64L-G16Re
 vA.03\State=2-A\HF=-507.1757369\S2=0.766156\S2-1=0.\S2A=0.750123\RMSD=
 5.537e-09\RMSF=1.952e-05\ZeroPoint=0.0948985\Thermal=0.1044962\Dipole=
 -0.7168116,0.9468013,0.9535383\DipoleDeriv=-0.3218928,-1.5309665,0.039
 9678,0.1315126,-0.3072213,-0.0269437,-0.0432637,0.048439,-0.4076878,-0
 .5478152,0.3519124,0.0042724,0.2179633,-0.4528453,0.0018972,0.0313152,
 -0.0219304,0.0412597,-0.4081671,0.4631798,-0.0158375,-0.3542343,-0.539
 1356,0.0174509,0.0089789,-0.0160387,-0.4498355,0.2004725,0.0227072,-0.
 0156983,-0.0884661,1.1147335,-0.0423758,-0.0017113,-0.0490941,-0.09404
 76,-0.5481683,0.7453601,-0.0240379,0.1374804,-1.4587847,0.0314615,-0.0
 104432,0.0053695,-0.3540091,0.1002843,0.0106956,0.0098698,-0.0120129,0
 .1052176,0.0100368,0.0121662,0.0086723,0.3455668,-0.040266,0.038864,0.
 0093069,0.043308,0.1498277,0.0003581,0.0096051,0.0018303,0.217353,1.09
 92996,0.5678439,0.0549813,0.3581142,0.6851873,-0.0193211,0.0795794,-0.
 0029055,0.3558534,2.8236539,-0.2064103,-0.0738845,-0.8608214,3.8708593
 ,-0.054101,-0.0974657,-0.0554995,0.5749564,-0.792378,-0.3225318,0.0085
 045,1.2006782,-3.3150657,0.0216255,-0.0288953,0.0741381,-0.7079044,-2.
 163235,0.0817645,0.0394961,-0.8457353,-0.917921,0.0213636,0.0974774,-0
 .0228579,-0.598596,0.41132,0.0011647,0.0443522,-0.0119816,0.4480124,-0
 .0301657,0.0209521,-0.0140223,0.3161383,-1.3110098,-0.4155711,-0.08828
 85,-0.2558976,-1.2351781,0.0403759,-0.0883561,0.0118909,-0.6888049,0.4
 979017,0.1919875,0.0069956,0.3400924,0.852314,0.0283377,0.010061,0.032
 0085,0.4497578\Polar=139.8838751,-20.0013331,156.9395278,-1.1728514,-1
 .1096654,68.9463778\Quadrupole=4.142691,-12.0993954,7.9567044,7.251193
 1,3.9521324,3.8383419\PG=C01 [X(C3H5N3O3)]\NImag=0\\0.53675397,0.00698
 609,0.34218860,-0.01722112,-0.00960421,0.05778305,-0.12944945,-0.08770
 722,0.00702823,0.80454191,-0.00707688,-0.15777825,0.00486410,-0.129097
 44,0.63768474,0.00331881,0.00742146,-0.03471280,-0.02816223,-0.0125571
 3,0.08371657,-0.00960425,-0.03861795,0.00197000,-0.24712802,-0.0478460
 7,0.01118518,0.53977241,-0.02999878,-0.03267059,0.00234936,-0.03590316
 ,-0.12216268,0.00471468,0.04360063,0.89395390,0.00149367,0.00292490,-0
 .00179685,0.01016171,0.00513387,-0.03830786,-0.02159603,-0.03346779,0.
 07522878,-0.10621847,-0.00154762,0.00506487,-0.06112590,0.01490109,0.0
 0242209,-0.16977776,0.13250622,-0.00012464,0.88447282,0.00400788,-0.00
 405081,0.00045911,0.06849225,-0.00665729,-0.00194143,0.09968549,-0.305
 10675,0.00534776,-0.08798409,0.60427951,0.00521117,0.00112614,0.015538
 31,0.00030176,-0.00013495,0.00836567,0.00108395,0.00411856,-0.05403687
 ,-0.02915310,-0.01448637,0.12958343,-0.27187542,0.11144231,0.00569164,
 -0.03882466,0.06044140,-0.00026406,0.01536631,-0.04423897,0.00233144,-
 0.20652731,-0.14589371,0.01210594,0.51565082,-0.00271742,-0.11304941,0
 .00219179,0.03606725,-0.06926328,0.00087889,0.02003775,-0.11243019,0.0
 0454952,-0.11077266,-0.20257700,0.00977077,0.04598471,0.48968221,0.010
 39583,-0.00305547,-0.04908075,0.00039300,0.00049240,0.00428470,-0.0002
 9715,0.00706544,0.02755386,0.01065015,0.01144224,-0.06467779,-0.021328
 01,-0.01723142,0.08214580,-0.00496197,-0.00004993,0.00028770,-0.006835
 81,-0.02981047,0.00127636,-0.08915655,-0.09585896,0.00690959,0.0135117
 3,0.01004430,-0.00105736,-0.00118110,0.00631469,0.00004899,0.08798798,
 0.00252656,-0.00017603,0.00003822,0.00193390,0.00318653,-0.00041286,-0
 .10668582,-0.34479197,0.01744270,-0.01063929,-0.00643009,0.00062853,-0
 .00012006,-0.00155770,0.00029500,0.11076695,0.35137847,0.00032811,0.00
 007223,0.00370202,-0.00001004,0.00093434,-0.00542184,0.00733966,0.0170
 7834,-0.01179607,-0.00023372,-0.00025363,-0.00209824,0.00020730,0.0000
 6571,0.00578142,-0.00739292,-0.01788835,0.01222930,-0.00049066,-0.0023
 8369,0.00039359,0.00012215,-0.00077261,0.00031119,-0.00217749,-0.00216
 272,0.00022270,-0.34966959,0.06306692,0.01093542,-0.01567591,0.0056551
 0,0.00022199,-0.00029819,0.00027229,-0.00009217,0.36809087,-0.00483272
 ,-0.00345793,0.00059350,0.00328840,-0.00642640,0.00033942,0.02189634,0
 .00605922,-0.00111127,0.06925935,-0.07575646,-0.00133398,-0.02590811,0
 .01219714,0.00045464,-0.00079596,0.00000409,-0.00004668,-0.06389914,0.
 06604388,0.00056702,0.00058037,0.00801387,0.00013359,0.00048536,0.0061
 3542,-0.00068348,-0.00010396,0.00117828,0.01068178,-0.00105652,-0.0337
 9172,0.00141889,-0.00088982,-0.00553057,-0.00004880,-0.00009386,-0.002
 17215,-0.01204076,0.00113884,0.02539099,-0.00040710,0.00954429,-0.0001
 5572,0.00878017,-0.00113722,0.00099333,-0.00016748,0.00436914,-0.00022
 294,0.00344468,-0.00069756,-0.00035230,-0.00215492,0.00640813,0.000504
 98,0.00075127,-0.00007215,-0.00004091,0.00050348,0.00032094,-0.0001104
 6,0.39980665,0.00512433,-0.00518759,0.00072835,0.00089873,-0.00197239,
 0.00009549,0.00047273,0.00157639,-0.00013121,0.00274877,-0.00079311,-0
 .00020285,0.00184497,0.00545018,0.00033071,0.00022856,-0.00000076,-0.0
 0002653,0.00039640,0.00033477,-0.00009557,0.01410685,0.02687290,-0.001
 31945,-0.00000422,-0.00379501,0.00102483,0.00028104,-0.00166886,-0.000
 03761,0.00036435,0.00014247,0.00031377,-0.00002345,0.00046205,0.000343
 99,0.00046940,-0.00133361,0.00008431,0.00000837,0.00007300,0.00006173,
 0.00005116,0.00020351,-0.00762940,0.00877758,0.05123996,0.00283991,0.0
 2105958,-0.00107788,-0.26869675,0.11484537,0.00630337,-0.03520959,0.02
 475026,0.00073386,-0.00450575,-0.00781163,0.00037804,0.01511045,-0.012
 82060,-0.00018174,0.00147778,-0.00046524,-0.00004824,0.00043322,0.0000
 6742,0.00003086,0.00711237,-0.00050071,0.00032927,0.62783162,0.0528674
 5,-0.01749151,-0.00156501,0.11315151,-0.22299178,0.00157106,-0.0008230
 6,0.01261681,-0.00049031,-0.00735464,-0.00483007,0.00050935,-0.0235920
 3,0.00807046,0.00063847,-0.00236941,-0.00166116,0.00017610,-0.00104104
 ,0.00164783,0.00001603,-0.00774500,-0.00529908,-0.00021496,-0.01564653
 ,0.86713742,-0.00118573,0.00074143,0.00164582,0.00768387,-0.00070678,-
 0.04596852,0.00078413,-0.00159960,0.00192750,0.00047724,0.00026808,-0.
 00002469,-0.00058007,0.00062913,-0.00249783,-0.00003946,0.00003841,-0.
 00048797,0.00003349,-0.00001203,0.00107718,-0.00025527,0.00005395,0.00
 020461,-0.02040526,-0.01614094,0.14000471,-0.01058980,-0.00930749,0.00
 117507,0.00497991,0.04831062,-0.00123544,0.00763489,-0.00017276,-0.000
 51356,0.00089554,0.00384012,-0.00014913,0.00274025,0.00030677,-0.00007
 723,-0.00003462,0.00228680,-0.00010372,0.00004702,0.00023382,-0.000013
 08,-0.00048293,0.00072000,-0.00008915,-0.09613084,-0.05712326,0.004111
 98,0.11145537,-0.02667603,-0.01687500,0.00191054,-0.00014333,-0.058567
 39,0.00062821,0.01654555,0.00836342,-0.00094966,-0.00281085,0.00351880
 ,-0.00008976,0.02621961,-0.01778051,-0.00033112,0.00159554,-0.00029926
 ,-0.00010452,0.00107537,-0.00012737,-0.00004032,0.00708036,0.00421866,
 0.00011267,-0.06062053,-0.50687607,0.01336586,0.07952556,0.62821787,0.
 00123448,0.00094240,0.00202839,0.00003117,-0.00005123,0.01402647,-0.00
 077131,-0.00035299,-0.00418993,-0.00001289,-0.00028779,-0.00050084,-0.
 00058503,0.00052631,0.00285852,-0.00005692,-0.00002987,0.00046753,-0.0
 0002630,-0.00000771,0.00000808,-0.00019902,-0.00012184,0.00003946,0.00
 420616,0.01245179,-0.05445050,-0.00590585,-0.01716344,0.02694011,0.020
 40391,0.00485005,-0.00098431,-0.05998406,-0.02162000,0.00422614,-0.008
 91319,0.00636095,0.00038711,-0.00285642,-0.00716820,0.00047077,-0.0122
 9618,0.00990338,0.00014022,-0.00085477,0.00014546,0.00003233,-0.000614
 94,0.00068784,-0.00004038,-0.00642006,-0.00105203,-0.00024327,-0.24311
 689,-0.01368520,0.01043908,-0.01562217,-0.03522723,0.00145494,0.371631
 35,0.01216051,0.00696625,-0.00111095,0.02642810,0.00195211,-0.00055122
 ,-0.00906857,-0.00350513,0.00063001,0.00291554,-0.00300945,0.00004897,
 -0.00674407,0.00638289,0.00011951,-0.00003335,0.00037068,-0.00002030,-
 0.00007969,-0.00017693,0.00000739,-0.00457742,0.00236567,-0.00034745,-
 0.05389879,-0.12143943,0.00253664,-0.06978077,-0.04500019,0.00443601,0
 .09403090,0.62071756,-0.00196154,-0.00074766,-0.00317236,0.00175599,0.
 00153456,0.00761168,0.00118598,0.00007984,0.00482051,0.00003240,0.0005
 5496,0.00143862,0.00101151,-0.00082052,0.00039972,0.00003331,-0.000022
 87,-0.00030342,0.00000938,-0.00004080,-0.00053269,0.00012355,0.0001045
 8,-0.00037269,0.01053427,0.00058111,-0.03432223,0.00161573,0.00186417,
 0.00828925,-0.01658578,0.01123642,0.02062550,-0.00158486,-0.00067142,0
 .00077207,-0.00033827,-0.00005326,0.00021014,0.00003210,-0.00013932,-0
 .00000563,-0.00016649,0.00005205,-0.00003987,-0.00011299,-0.00030154,0
 .00015131,-0.00002870,-0.00000528,-0.00000273,-0.00002678,-0.00002559,
 -0.00002178,-0.00703008,-0.01123292,-0.04156218,-0.00047836,0.00011302
 ,-0.00002718,0.00009970,-0.00008513,0.00000169,0.00049357,0.00087456,-
 0.00010756,0.08478202,-0.00033185,0.00044850,0.00011863,0.00001466,-0.
 00003950,-0.00003119,-0.00000293,0.00001607,0.00000220,-0.00003281,0.0
 0003646,-0.00000972,-0.00019010,-0.00010402,0.00013595,0.00000469,-0.0
 0000389,-0.00000121,-0.00000646,-0.00000873,-0.00001085,0.00076072,-0.
 00163875,-0.00341550,0.00029117,-0.00005248,0.00000314,-0.00010302,-0.
 00006985,0.00002835,-0.00027239,-0.00127119,0.00053665,0.04625815,0.04
 437609,0.00091202,0.00030508,-0.00012782,0.00011510,0.00003405,0.00004
 043,0.00007398,0.00011341,-0.00000062,0.00010787,-0.00001660,-0.000008
 57,0.00004255,0.00011740,0.00002938,0.00002309,-0.00000118,0.00000716,
 0.00002549,0.00000868,-0.00000393,0.00467727,0.00054265,0.00033763,-0.
 00044433,-0.00039096,-0.00000034,0.00017092,0.00034735,-0.00000650,0.0
 0033182,0.00169062,-0.00003687,0.14083732,0.13585463,0.45377487,-0.022
 35577,-0.01248764,-0.00214139,-0.00562452,0.00070533,-0.00068578,-0.00
 008772,-0.00277263,0.00014370,-0.00285186,0.00092430,0.00029896,-0.000
 58140,-0.00576148,-0.00061766,-0.00048179,0.00004860,0.00002643,-0.000
 41639,-0.00033490,0.00013907,-0.40685770,-0.01956438,0.04815363,-0.001
 98077,0.00556584,0.00017237,-0.00038229,-0.00513195,0.00014801,0.00314
 084,-0.00354336,-0.00006659,-0.07501200,-0.04586484,-0.14658904,0.5177
 1282,-0.00908608,0.00161145,-0.00098501,-0.00131914,-0.00025452,0.0002
 6234,-0.00078033,-0.00051478,0.00006812,-0.00115828,0.00019031,0.00008
 019,-0.00176827,-0.00183657,-0.00027305,-0.00012362,0.00001520,0.00001
 492,-0.00019929,-0.00013358,0.00005472,-0.03949678,-0.01354916,-0.0062
 0975,0.00998427,0.00211274,-0.00061843,-0.00314181,-0.00376548,0.00023
 020,-0.01151342,-0.02157665,-0.00131354,-0.03331647,-0.04275304,-0.135
 81903,0.08444710,0.06213038,-0.00175303,-0.00072763,0.00357519,-0.0006
 2578,-0.00026045,0.00056845,-0.00007375,-0.00026814,-0.00003417,-0.000
 27952,0.00005220,-0.00016554,-0.00029785,-0.00037987,0.00080423,-0.000
 06331,-0.00000710,-0.00003713,-0.00006506,-0.00003787,-0.00011164,0.00
 199402,-0.00958094,-0.04791986,0.00073372,0.00042684,0.00008005,-0.000
 29700,-0.00055066,0.00001021,-0.00079799,-0.00267743,0.00214928,-0.100
 31291,-0.13044128,-0.45392670,0.10179992,0.14051576,0.50129521,-0.0024
 6000,-0.00110935,-0.00080274,-0.00041671,-0.00178985,0.00010089,-0.000
 58367,-0.00033988,0.00007903,0.00137481,-0.00055813,-0.00003427,0.0003
 6207,0.00169592,-0.00000468,0.00010475,0.00000728,-0.00000938,0.000173
 20,0.00004232,-0.00001247,0.00312164,0.00580871,0.00056951,-0.00468640
 ,-0.04231765,-0.00120921,-0.00461003,-0.00134695,0.00048089,-0.0449909
 9,0.01131643,0.00241935,-0.00062885,-0.00052502,-0.00028408,-0.0042214
 5,0.00747211,0.00003854,0.05746163,-0.00295307,-0.00047769,0.00001157,
 0.00389549,0.00329010,-0.00041771,0.00158625,-0.00140373,0.00005115,-0
 .00003073,0.00118594,-0.00002487,0.00252234,-0.00318421,-0.00008332,0.
 00008697,-0.00003411,-0.00000042,0.00007856,-0.00019953,0.00000820,0.0
 1113569,-0.01237771,0.00015078,-0.01923403,-0.01094367,0.00144113,0.00
 440541,0.00504239,-0.00060020,-0.02544011,-0.44277619,-0.01354690,-0.0
 0146685,0.00106434,-0.00278610,0.00377002,0.01832370,0.00393657,0.0216
 4407,0.44249037,-0.00002025,0.00002519,0.00039893,0.00016878,-0.000049
 17,0.00133048,-0.00016354,-0.00009149,-0.00068902,0.00005370,-0.000058
 57,-0.00008383,-0.00009824,0.00012271,-0.00073709,-0.00000458,0.000004
 84,0.00005640,0.00000932,0.00000409,0.00013538,0.00067286,-0.00047437,
 0.00238734,-0.00109210,0.00243143,-0.00718779,0.00131046,0.00100066,0.
 00447976,0.00116931,-0.01599821,-0.00659429,0.00010731,-0.00276980,-0.
 00007813,-0.00078163,0.00399256,-0.00628760,-0.00133139,0.01186012,0.0
 1286943\\0.00001145,-0.00003763,-0.00002270,-0.00001459,-0.00000751,-0
 .00000153,0.00000851,-0.00001601,0.00001272,0.00001705,-0.00001715,-0.
 00000120,-0.00001912,0.00001338,0.00000986,0.00001612,-0.00001702,-0.0
 0002395,-0.00000160,-0.00002216,0.00000760,-0.00000195,0.00004227,0.00
 004920,0.00000022,0.00003787,-0.00002275,0.00002580,-0.00001474,-0.000
 02585,-0.00000254,0.00002141,-0.00000225,-0.00001462,0.00003361,0.0000
 1255,-0.00001667,-0.00001288,0.00000822,-0.00000803,-0.00000344,0.0000
 0008\\\@


 ASKING FOR EFFICIENCY AND ADAPTABILITY IN THE SAME PROGRAM IS LIKE
 ASKING FOR A BEAUTIFUL AND MODEST WIFE ...
 WE'LL PROBABLY HAVE TO SETTLE FOR ONE OR THE OTHER.

             -- THE PSYCHOLOGY OF COMPUTER PROGRAMMING
                GERALD M. WEINBERG
 Job cpu time:       0 days  1 hours  0 minutes 58.9 seconds.
 Elapsed time:       0 days  0 hours  2 minutes 33.3 seconds.
 File lengths (MBytes):  RWF=    151 Int=      0 D2E=      0 Chk=      9 Scr=      1
 Normal termination of Gaussian 16 at Wed Jul 12 14:05:55 2023.
