 Entering Gaussian System, Link 0=/opt/soft/g16/g16
 Initial command:
 /opt/soft/g16/l1.exe "/scratch/gongke2021/PC/Gau-7226.inp" -scrdir="/scratch/gongke2021/PC/"
 Entering Link 1 = /opt/soft/g16/l1.exe PID=      7227.
  
 Copyright (c) 1988,1990,1992,1993,1995,1998,2003,2009,2016,
            Gaussian, Inc.  All Rights Reserved.
  
 This is part of the Gaussian(R) 16 program.  It is based on
 the Gaussian(R) 09 system (copyright 2009, Gaussian, Inc.),
 the Gaussian(R) 03 system (copyright 2003, Gaussian, Inc.),
 the Gaussian(R) 98 system (copyright 1998, Gaussian, Inc.),
 the Gaussian(R) 94 system (copyright 1995, Gaussian, Inc.),
 the Gaussian 92(TM) system (copyright 1992, Gaussian, Inc.),
 the Gaussian 90(TM) system (copyright 1990, Gaussian, Inc.),
 the Gaussian 88(TM) system (copyright 1988, Gaussian, Inc.),
 the Gaussian 86(TM) system (copyright 1986, Carnegie Mellon
 University), and the Gaussian 82(TM) system (copyright 1983,
 Carnegie Mellon University). Gaussian is a federally registered
 trademark of Gaussian, Inc.
  
 This software contains proprietary and confidential information,
 including trade secrets, belonging to Gaussian, Inc.
  
 This software is provided under written license and may be
 used, copied, transmitted, or stored only in accord with that
 written license.
  
 The following legend is applicable only to US Government
 contracts under FAR:
  
                    RESTRICTED RIGHTS LEGEND
  
 Use, reproduction and disclosure by the US Government is
 subject to restrictions as set forth in subparagraphs (a)
 and (c) of the Commercial Computer Software - Restricted
 Rights clause in FAR 52.227-19.
  
 Gaussian, Inc.
 340 Quinnipiac St., Bldg. 40, Wallingford CT 06492
  
  
 ---------------------------------------------------------------
 Warning -- This program may not be used in any manner that
 competes with the business of Gaussian, Inc. or will provide
 assistance to any competitor of Gaussian, Inc.  The licensee
 of this program is prohibited from giving any competitor of
 Gaussian, Inc. access to this program.  By using this program,
 the user acknowledges that Gaussian, Inc. is engaged in the
 business of creating and licensing software in the field of
 computational chemistry and represents and warrants to the
 licensee that it is not a competitor of Gaussian, Inc. and that
 it will not use this program in any manner prohibited above.
 ---------------------------------------------------------------
  

 Cite this work as:
 Gaussian 16, Revision A.03,
 M. J. Frisch, G. W. Trucks, H. B. Schlegel, G. E. Scuseria, 
 M. A. Robb, J. R. Cheeseman, G. Scalmani, V. Barone, 
 G. A. Petersson, H. Nakatsuji, X. Li, M. Caricato, A. V. Marenich, 
 J. Bloino, B. G. Janesko, R. Gomperts, B. Mennucci, H. P. Hratchian, 
 J. V. Ortiz, A. F. Izmaylov, J. L. Sonnenberg, D. Williams-Young, 
 F. Ding, F. Lipparini, F. Egidi, J. Goings, B. Peng, A. Petrone, 
 T. Henderson, D. Ranasinghe, V. G. Zakrzewski, J. Gao, N. Rega, 
 G. Zheng, W. Liang, M. Hada, M. Ehara, K. Toyota, R. Fukuda, 
 J. Hasegawa, M. Ishida, T. Nakajima, Y. Honda, O. Kitao, H. Nakai, 
 T. Vreven, K. Throssell, J. A. Montgomery, Jr., J. E. Peralta, 
 F. Ogliaro, M. J. Bearpark, J. J. Heyd, E. N. Brothers, K. N. Kudin, 
 V. N. Staroverov, T. A. Keith, R. Kobayashi, J. Normand, 
 K. Raghavachari, A. P. Rendell, J. C. Burant, S. S. Iyengar, 
 J. Tomasi, M. Cossi, J. M. Millam, M. Klene, C. Adamo, R. Cammi, 
 J. W. Ochterski, R. L. Martin, K. Morokuma, O. Farkas, 
 J. B. Foresman, and D. J. Fox, Gaussian, Inc., Wallingford CT, 2016.
 
 ******************************************
 Gaussian 16:  ES64L-G16RevA.03 25-Dec-2016
                11-Jul-2023 
 ******************************************
 %mem=10GB
 %nprocshared=24
 Will use up to   24 processors via shared memory.
 -----------------------------------------------------
 # opt freq 6-31+g(d,p) m062x scrf=(SMD,solvent=water)
 -----------------------------------------------------
 1/18=20,19=15,26=3,38=1/1,3;
 2/9=110,12=2,17=6,18=5,40=1/2;
 3/5=1,6=6,7=111,11=2,25=1,30=1,70=32201,71=1,72=1,74=-55/1,2,3;
 4//1;
 5/5=2,38=5,53=1/2;
 6/7=2,8=2,9=2,10=2,28=1/1;
 7//1,2,3,16;
 1/18=20,19=15,26=3/3(2);
 2/9=110/2;
 99//99;
 2/9=110/2;
 3/5=1,6=6,7=111,11=2,25=1,30=1,70=32205,71=1,72=1,74=-55/1,2,3;
 4/5=5,16=3,69=1/1;
 5/5=2,38=5,53=1/2;
 7//1,2,3,16;
 1/18=20,19=15,26=3/3(-5);
 2/9=110/2;
 6/7=2,8=2,9=2,10=2,19=2,28=1/1;
 99/9=1/99;
 ----
 test
 ----
 Symbolic Z-matrix:
 Charge = -1 Multiplicity = 2
 N                     0.10954  -0.94282   0.25229 
 N                     0.79163   0.23677  -0.1091 
 C                     2.1538   -0.04658  -0.09977 
 C                     2.23658  -1.38503   0.20494 
 N                     1.02868  -1.94296   0.38272 
 H                     2.8755    0.72991  -0.28128 
 H                     3.13203  -1.98459   0.29944 
 H                    -1.12306  -1.31208  -0.39589 
 C                     0.26941   1.53095  -0.07951 
 O                     1.02435   2.46921  -0.31 
 O                    -1.00986   1.67818   0.16109 
 H                    -2.58722  -0.49978   0.07882 
 O                    -2.01264  -1.44364  -1.02928 
 H                    -2.05946  -1.06306  -1.91144 
 H                    -1.50756   0.77146   0.38726 
 O                    -2.73917   0.01399   0.74904 
 H                    -2.52156  -0.48414   1.54423 
 
 Add virtual bond connecting atoms H8         and N1         Dist= 2.72D+00.
 Add virtual bond connecting atoms H12        and O13        Dist= 2.96D+00.
 Add virtual bond connecting atoms O16        and H15        Dist= 2.82D+00.

 GradGradGradGradGradGradGradGradGradGradGradGradGradGradGradGradGradGrad
 Berny optimization.
 Initialization pass.
                           ----------------------------
                           !    Initial Parameters    !
                           ! (Angstroms and Degrees)  !
 --------------------------                            --------------------------
 ! Name  Definition              Value          Derivative Info.                !
 --------------------------------------------------------------------------------
 ! R1    R(1,2)                  1.4097         estimate D2E/DX2                !
 ! R2    R(1,5)                  1.3646         estimate D2E/DX2                !
 ! R3    R(1,8)                  1.4408         estimate D2E/DX2                !
 ! R4    R(2,3)                  1.3914         estimate D2E/DX2                !
 ! R5    R(2,9)                  1.3959         estimate D2E/DX2                !
 ! R6    R(3,4)                  1.3752         estimate D2E/DX2                !
 ! R7    R(3,6)                  1.0755         estimate D2E/DX2                !
 ! R8    R(4,5)                  1.3424         estimate D2E/DX2                !
 ! R9    R(4,7)                  1.0818         estimate D2E/DX2                !
 ! R10   R(8,13)                 1.0999         estimate D2E/DX2                !
 ! R11   R(9,10)                 1.2261         estimate D2E/DX2                !
 ! R12   R(9,11)                 1.31           estimate D2E/DX2                !
 ! R13   R(11,15)                1.0588         estimate D2E/DX2                !
 ! R14   R(12,13)                1.5649         estimate D2E/DX2                !
 ! R15   R(12,16)                0.858          estimate D2E/DX2                !
 ! R16   R(13,14)                0.9619         estimate D2E/DX2                !
 ! R17   R(15,16)                1.4905         estimate D2E/DX2                !
 ! R18   R(16,17)                0.9632         estimate D2E/DX2                !
 ! A1    A(2,1,5)              108.1726         estimate D2E/DX2                !
 ! A2    A(2,1,8)              120.868          estimate D2E/DX2                !
 ! A3    A(5,1,8)              115.557          estimate D2E/DX2                !
 ! A4    A(1,2,3)              107.5517         estimate D2E/DX2                !
 ! A5    A(1,2,9)              126.1105         estimate D2E/DX2                !
 ! A6    A(3,2,9)              123.7067         estimate D2E/DX2                !
 ! A7    A(2,3,4)              104.9892         estimate D2E/DX2                !
 ! A8    A(2,3,6)              120.5827         estimate D2E/DX2                !
 ! A9    A(4,3,6)              134.4015         estimate D2E/DX2                !
 ! A10   A(3,4,5)              112.3158         estimate D2E/DX2                !
 ! A11   A(3,4,7)              127.4898         estimate D2E/DX2                !
 ! A12   A(5,4,7)              120.1929         estimate D2E/DX2                !
 ! A13   A(1,5,4)              106.7866         estimate D2E/DX2                !
 ! A14   A(2,9,10)             118.3684         estimate D2E/DX2                !
 ! A15   A(2,9,11)             118.2575         estimate D2E/DX2                !
 ! A16   A(10,9,11)            123.3524         estimate D2E/DX2                !
 ! A17   A(9,11,15)            113.7048         estimate D2E/DX2                !
 ! A18   A(8,13,12)             79.4588         estimate D2E/DX2                !
 ! A19   A(8,13,14)            121.3428         estimate D2E/DX2                !
 ! A20   A(12,13,14)           113.1348         estimate D2E/DX2                !
 ! A21   A(11,15,16)           151.1044         estimate D2E/DX2                !
 ! A22   A(12,16,15)            88.1874         estimate D2E/DX2                !
 ! A23   A(12,16,17)           107.1681         estimate D2E/DX2                !
 ! A24   A(15,16,17)           106.0525         estimate D2E/DX2                !
 ! A25   L(1,8,13,11,-1)       173.1881         estimate D2E/DX2                !
 ! A26   L(13,12,16,2,-1)      169.4709         estimate D2E/DX2                !
 ! A27   L(1,8,13,11,-2)       170.9101         estimate D2E/DX2                !
 ! A28   L(13,12,16,2,-2)      185.1681         estimate D2E/DX2                !
 ! D1    D(5,1,2,3)             -4.256          estimate D2E/DX2                !
 ! D2    D(5,1,2,9)           -166.2792         estimate D2E/DX2                !
 ! D3    D(8,1,2,3)           -140.7409         estimate D2E/DX2                !
 ! D4    D(8,1,2,9)             57.2359         estimate D2E/DX2                !
 ! D5    D(2,1,5,4)              4.1918         estimate D2E/DX2                !
 ! D6    D(8,1,5,4)            143.2636         estimate D2E/DX2                !
 ! D7    D(2,1,13,12)          -85.4364         estimate D2E/DX2                !
 ! D8    D(2,1,13,14)           25.6265         estimate D2E/DX2                !
 ! D9    D(5,1,13,12)          143.6737         estimate D2E/DX2                !
 ! D10   D(5,1,13,14)         -105.2634         estimate D2E/DX2                !
 ! D11   D(1,2,3,4)              2.569          estimate D2E/DX2                !
 ! D12   D(1,2,3,6)           -175.8136         estimate D2E/DX2                !
 ! D13   D(9,2,3,4)            165.1279         estimate D2E/DX2                !
 ! D14   D(9,2,3,6)            -13.2547         estimate D2E/DX2                !
 ! D15   D(1,2,9,10)           173.568          estimate D2E/DX2                !
 ! D16   D(1,2,9,11)            -8.0712         estimate D2E/DX2                !
 ! D17   D(3,2,9,10)            14.2836         estimate D2E/DX2                !
 ! D18   D(3,2,9,11)          -167.3556         estimate D2E/DX2                !
 ! D19   D(2,3,4,5)              0.0098         estimate D2E/DX2                !
 ! D20   D(2,3,4,7)            179.5591         estimate D2E/DX2                !
 ! D21   D(6,3,4,5)            178.0607         estimate D2E/DX2                !
 ! D22   D(6,3,4,7)             -2.3899         estimate D2E/DX2                !
 ! D23   D(3,4,5,1)             -2.6588         estimate D2E/DX2                !
 ! D24   D(7,4,5,1)            177.7549         estimate D2E/DX2                !
 ! D25   D(2,9,11,15)            4.5782         estimate D2E/DX2                !
 ! D26   D(10,9,11,15)        -177.1486         estimate D2E/DX2                !
 ! D27   D(9,11,15,16)         179.4989         estimate D2E/DX2                !
 ! D28   D(8,13,16,15)          49.7952         estimate D2E/DX2                !
 ! D29   D(8,13,16,17)         -55.1322         estimate D2E/DX2                !
 ! D30   D(14,13,16,15)        -68.3163         estimate D2E/DX2                !
 ! D31   D(14,13,16,17)       -173.2437         estimate D2E/DX2                !
 ! D32   D(11,15,16,12)        126.958          estimate D2E/DX2                !
 ! D33   D(11,15,16,17)       -125.6925         estimate D2E/DX2                !
 --------------------------------------------------------------------------------
 Trust Radius=3.00D-01 FncErr=1.00D-07 GrdErr=1.00D-06 EigMax=2.50D+02 EigMin=1.00D-04
 Number of steps in this run=     89 maximum allowed number of steps=    102.
 GradGradGradGradGradGradGradGradGradGradGradGradGradGradGradGradGradGrad

                          Input orientation:                          
 ---------------------------------------------------------------------
 Center     Atomic      Atomic             Coordinates (Angstroms)
 Number     Number       Type             X           Y           Z
 ---------------------------------------------------------------------
      1          7           0        0.109539   -0.942824    0.252292
      2          7           0        0.791630    0.236774   -0.109104
      3          6           0        2.153795   -0.046583   -0.099765
      4          6           0        2.236580   -1.385026    0.204943
      5          7           0        1.028680   -1.942963    0.382720
      6          1           0        2.875497    0.729910   -0.281283
      7          1           0        3.132028   -1.984591    0.299438
      8          1           0       -1.123056   -1.312076   -0.395889
      9          6           0        0.269409    1.530951   -0.079513
     10          8           0        1.024345    2.469212   -0.309999
     11          8           0       -1.009863    1.678183    0.161094
     12          1           0       -2.587216   -0.499780    0.078819
     13          8           0       -2.012636   -1.443638   -1.029276
     14          1           0       -2.059457   -1.063065   -1.911439
     15          1           0       -1.507557    0.771462    0.387257
     16          8           0       -2.739170    0.013992    0.749036
     17          1           0       -2.521560   -0.484137    1.544232
 ---------------------------------------------------------------------
                    Distance matrix (angstroms):
                    1          2          3          4          5
     1  N    0.000000
     2  N    1.409719   0.000000
     3  C    2.259685   1.391356   0.000000
     4  C    2.173037   2.194708   1.375184   0.000000
     5  N    1.364591   2.247073   2.257196   1.342356   0.000000
     6  H    3.276166   2.148332   1.075520   2.262208   3.316004
     7  H    3.197333   3.252512   2.207301   1.081774   2.105408
     8  H    1.440755   2.479355   3.525183   3.413718   2.373651
     9  C    2.501043   1.395881   2.457628   3.528966   3.585837
    10  O    3.577014   2.253507   2.765697   4.073061   4.466225
    11  O    2.851501   2.322939   3.612699   4.463694   4.161427
    12  H    2.738407   3.463297   4.765970   4.905974   3.905104
    13  O    2.529201   3.396235   4.491648   4.425220   3.390083
    14  H    3.066062   3.614788   4.697541   4.799861   3.946388
    15  H    2.360507   2.412163   3.783106   4.324609   3.714919
    16  O    3.045882   3.640410   4.966411   5.197247   4.261520
    17  H    2.966848   3.772328   4.975251   5.024459   4.010173
                    6          7          8          9         10
     6  H    0.000000
     7  H    2.787752   0.000000
     8  H    4.491243   4.363656   0.000000
     9  C    2.733875   4.549421   3.181486   0.000000
    10  O    2.540228   4.964887   4.349350   1.226126   0.000000
    11  O    4.023797   5.530851   3.043795   1.310002   2.232859
    12  H    5.610976   5.912960   1.740385   3.508453   4.691425
    13  O    5.401634   5.340944   1.099928   3.867552   5.005098
    14  H    5.497812   5.717404   1.798818   3.938082   4.954940
    15  H    4.433942   5.397156   2.258825   1.988041   3.127147
    16  O    5.753137   6.218315   2.383513   3.469756   4.616677
    17  H    5.825345   5.980295   2.530882   3.806131   4.973317
                   11         12         13         14         15
    11  O    0.000000
    12  H    2.690415   0.000000
    13  O    3.488309   1.564892   0.000000
    14  H    3.593255   2.134701   0.961894   0.000000
    15  H    1.058769   1.696129   2.677376   2.992338   0.000000
    16  O    2.470974   0.858045   2.411417   2.949608   1.490475
    17  H    2.978914   1.466966   2.793312   3.534170   1.985780
                   16         17
    16  O    0.000000
    17  H    0.963236   0.000000
 Stoichiometry    C3H7N3O4(1-,2)
 Framework group  C1[X(C3H7N3O4)]
 Deg. of freedom    45
 Full point group                 C1      NOp   1
 Largest Abelian subgroup         C1      NOp   1
 Largest concise Abelian subgroup C1      NOp   1
                         Standard orientation:                         
 ---------------------------------------------------------------------
 Center     Atomic      Atomic             Coordinates (Angstroms)
 Number     Number       Type             X           Y           Z
 ---------------------------------------------------------------------
      1          7           0       -0.106243   -0.943247   -0.249515
      2          7           0       -0.796055    0.232539    0.109641
      3          6           0       -2.156405   -0.059377    0.099463
      4          6           0       -2.230509   -1.398730   -0.203478
      5          7           0       -1.018969   -1.949315   -0.379396
      6          1           0       -2.883132    0.712818    0.279260
      7          1           0       -3.122089   -2.004034   -0.297956
      8          1           0        1.128054   -1.303864    0.400285
      9          6           0       -0.281941    1.529928    0.078740
     10          8           0       -1.042961    2.463746    0.307253
     11          8           0        0.996600    1.684859   -0.160914
     12          1           0        2.587519   -0.483043   -0.074218
     13          8           0        2.017865   -1.428970    1.034656
     14          1           0        2.061492   -1.046902    1.916336
     15          1           0        1.500183    0.780971   -0.385380
     16          8           0        2.736855    0.030754   -0.745004
     17          1           0        2.523101   -0.469821   -1.539710
 ---------------------------------------------------------------------
 Rotational constants (GHZ):           1.4872952           1.1602013           0.7230895
 Standard basis: 6-31+G(d,p) (6D, 7F)
 There are   225 symmetry adapted cartesian basis functions of A   symmetry.
 There are   225 symmetry adapted basis functions of A   symmetry.
   225 basis functions,   369 primitive gaussians,   225 cartesian basis functions
    40 alpha electrons       39 beta electrons
       nuclear repulsion energy       567.6409783638 Hartrees.
 NAtoms=   17 NActive=   17 NUniq=   17 SFac= 1.00D+00 NAtFMM=   60 NAOKFM=F Big=F
 Integral buffers will be    131072 words long.
 Raffenetti 2 integral format.
 Two-electron integral symmetry is turned on.
 ------------------------------------------------------------------------------
 Polarizable Continuum Model (PCM)
 =================================
 Model                : PCM.
 Atomic radii         : SMD-Coulomb.
 Polarization charges : Total charges.
 Charge compensation  : None.
 Solution method      : On-the-fly selection.
 Cavity type          : VdW (van der Waals Surface) (Alpha=1.000).
 Cavity algorithm     : GePol (No added spheres)
                        Default sphere list used, NSphG=   17.
                        Lebedev-Laikov grids with approx.  5.0 points / Ang**2.
                        Smoothing algorithm: York/Karplus (Gamma=1.0000).
                        Polarization charges: spherical gaussians, with
                                              point-specific exponents (IZeta= 3).
                        Self-potential: point-specific (ISelfS= 7).
                        Self-field    : sphere-specific E.n sum rule (ISelfD= 2).
 1st derivatives      : Analytical E(r).r(x)/FMM algorithm (CHGder, D1EAlg=3).
                        Cavity 1st derivative terms included.
 Solvent              : Water, Eps=  78.355300 Eps(inf)=   1.777849
 ------------------------------------------------------------------------------
 Spheres list:
 ISph  on   Nord     Re0    Alpha      Xe            Ye            Ze
    1   N      1    1.8900  1.000     -0.106243     -0.943247     -0.249515
    2   N      2    1.8900  1.000     -0.796055      0.232539      0.109641
    3   C      3    1.8500  1.000     -2.156405     -0.059377      0.099463
    4   C      4    1.8500  1.000     -2.230509     -1.398730     -0.203478
    5   N      5    1.8900  1.000     -1.018969     -1.949315     -0.379396
    6   H      6    1.2000  1.000     -2.883132      0.712818      0.279260
    7   H      7    1.2000  1.000     -3.122089     -2.004034     -0.297956
    8   H      8    1.2000  1.000      1.128054     -1.303864      0.400285
    9   C      9    1.8500  1.000     -0.281941      1.529928      0.078740
   10   O     10    1.5200  1.000     -1.042961      2.463746      0.307253
   11   O     11    1.5200  1.000      0.996600      1.684859     -0.160914
   12   H     12    1.2000  1.000      2.587519     -0.483043     -0.074218
   13   O     13    1.5200  1.000      2.017865     -1.428970      1.034656
   14   H     14    1.2000  1.000      2.061492     -1.046902      1.916336
   15   H     15    1.2000  1.000      1.500183      0.780971     -0.385380
   16   O     16    1.5200  1.000      2.736855      0.030754     -0.745004
   17   H     17    1.2000  1.000      2.523101     -0.469821     -1.539710
 ------------------------------------------------------------------------------
 ------------------------------------------------------------------------------
 Atomic radii for non-electrostatic terms: SMD-CDS.
 ------------------------------------------------------------------------------
 Nuclear repulsion after PCM non-electrostatic terms =      567.6489011145 Hartrees.
 One-electron integrals computed using PRISM.
 NBasis=   225 RedAO= T EigKep=  2.48D-05  NBF=   225
 NBsUse=   225 1.00D-06 EigRej= -1.00D+00 NBFU=   225
 ExpMin= 4.38D-02 ExpMax= 5.48D+03 ExpMxC= 8.25D+02 IAcc=3 IRadAn=         5 AccDes= 0.00D+00
 Harris functional with IExCor= 1009 and IRadAn=       5 diagonalized for initial guess.
 HarFok:  IExCor= 1009 AccDes= 0.00D+00 IRadAn=         5 IDoV= 1 UseB2=F ITyADJ=14
 ICtDFT=  3500011 ScaDFX=  1.000000  1.000000  1.000000  1.000000
 FoFCou: FMM=F IPFlag=           0 FMFlag=      100000 FMFlg1=           0
         NFxFlg=           0 DoJE=T BraDBF=F KetDBF=T FulRan=T
         wScrn=  0.000000 ICntrl=       500 IOpCl=  0 I1Cent=   200000004 NGrid=           0
         NMat0=    1 NMatS0=      1 NMatT0=    0 NMatD0=    1 NMtDS0=    0 NMtDT0=    0
 Petite list used in FoFCou.
 Initial guess <Sx>= 0.0000 <Sy>= 0.0000 <Sz>= 0.5000 <S**2>= 0.7500 S= 0.5000
 Requested convergence on RMS density matrix=1.00D-08 within 128 cycles.
 Requested convergence on MAX density matrix=1.00D-06.
 Requested convergence on             energy=1.00D-06.
 No special actions if energy rises.
 Inv3:  Mode=1 IEnd=     5179788.
 Iteration    1 A*A^-1 deviation from unit magnitude is 3.44D-15 for    960.
 Iteration    1 A*A^-1 deviation from orthogonality  is 2.39D-15 for    926    734.
 Iteration    1 A^-1*A deviation from unit magnitude is 3.44D-15 for    960.
 Iteration    1 A^-1*A deviation from orthogonality  is 5.99D-15 for    873    839.
 Error on total polarization charges =  0.06123
 SCF Done:  E(UM062X) =  -583.550039076     A.U. after   19 cycles
            NFock= 19  Conv=0.30D-08     -V/T= 2.0077
 <Sx>= 0.0000 <Sy>= 0.0000 <Sz>= 0.5000 <S**2>= 0.7646 S= 0.5073
 <L.S>=  0.00000000000    
 SMD-CDS (non-electrostatic) energy       (kcal/mol) =       4.97
 (included in total energy above)
 Annihilation of the first spin contaminant:
 S**2 before annihilation     0.7646,   after     0.7501

 **********************************************************************

            Population analysis using the SCF density.

 **********************************************************************

 Orbital symmetries:
 Alpha Orbitals:
       Occupied  (A) (A) (A) (A) (A) (A) (A) (A) (A) (A) (A) (A)
                 (A) (A) (A) (A) (A) (A) (A) (A) (A) (A) (A) (A)
                 (A) (A) (A) (A) (A) (A) (A) (A) (A) (A) (A) (A)
                 (A) (A) (A) (A)
       Virtual   (A) (A) (A) (A) (A) (A) (A) (A) (A) (A) (A) (A)
                 (A) (A) (A) (A) (A) (A) (A) (A) (A) (A) (A) (A)
                 (A) (A) (A) (A) (A) (A) (A) (A) (A) (A) (A) (A)
                 (A) (A) (A) (A) (A) (A) (A) (A) (A) (A) (A) (A)
                 (A) (A) (A) (A) (A) (A) (A) (A) (A) (A) (A) (A)
                 (A) (A) (A) (A) (A) (A) (A) (A) (A) (A) (A) (A)
                 (A) (A) (A) (A) (A) (A) (A) (A) (A) (A) (A) (A)
                 (A) (A) (A) (A) (A) (A) (A) (A) (A) (A) (A) (A)
                 (A) (A) (A) (A) (A) (A) (A) (A) (A) (A) (A) (A)
                 (A) (A) (A) (A) (A) (A) (A) (A) (A) (A) (A) (A)
                 (A) (A) (A) (A) (A) (A) (A) (A) (A) (A) (A) (A)
                 (A) (A) (A) (A) (A) (A) (A) (A) (A) (A) (A) (A)
                 (A) (A) (A) (A) (A) (A) (A) (A) (A) (A) (A) (A)
                 (A) (A) (A) (A) (A) (A) (A) (A) (A) (A) (A) (A)
                 (A) (A) (A) (A) (A) (A) (A) (A) (A) (A) (A) (A)
                 (A) (A) (A) (A) (A)
 Beta  Orbitals:
       Occupied  (A) (A) (A) (A) (A) (A) (A) (A) (A) (A) (A) (A)
                 (A) (A) (A) (A) (A) (A) (A) (A) (A) (A) (A) (A)
                 (A) (A) (A) (A) (A) (A) (A) (A) (A) (A) (A) (A)
                 (A) (A) (A)
       Virtual   (A) (A) (A) (A) (A) (A) (A) (A) (A) (A) (A) (A)
                 (A) (A) (A) (A) (A) (A) (A) (A) (A) (A) (A) (A)
                 (A) (A) (A) (A) (A) (A) (A) (A) (A) (A) (A) (A)
                 (A) (A) (A) (A) (A) (A) (A) (A) (A) (A) (A) (A)
                 (A) (A) (A) (A) (A) (A) (A) (A) (A) (A) (A) (A)
                 (A) (A) (A) (A) (A) (A) (A) (A) (A) (A) (A) (A)
                 (A) (A) (A) (A) (A) (A) (A) (A) (A) (A) (A) (A)
                 (A) (A) (A) (A) (A) (A) (A) (A) (A) (A) (A) (A)
                 (A) (A) (A) (A) (A) (A) (A) (A) (A) (A) (A) (A)
                 (A) (A) (A) (A) (A) (A) (A) (A) (A) (A) (A) (A)
                 (A) (A) (A) (A) (A) (A) (A) (A) (A) (A) (A) (A)
                 (A) (A) (A) (A) (A) (A) (A) (A) (A) (A) (A) (A)
                 (A) (A) (A) (A) (A) (A) (A) (A) (A) (A) (A) (A)
                 (A) (A) (A) (A) (A) (A) (A) (A) (A) (A) (A) (A)
                 (A) (A) (A) (A) (A) (A) (A) (A) (A) (A) (A) (A)
                 (A) (A) (A) (A) (A) (A)
 The electronic state is 2-A.
 Alpha  occ. eigenvalues --  -19.67238 -19.64290 -19.62371 -19.61112 -14.83426
 Alpha  occ. eigenvalues --  -14.79427 -14.76701 -10.70392 -10.56372 -10.56193
 Alpha  occ. eigenvalues --   -1.23529  -1.18018  -1.16182  -1.13057  -1.08226
 Alpha  occ. eigenvalues --   -0.99677  -0.88217  -0.77236  -0.68970  -0.67672
 Alpha  occ. eigenvalues --   -0.65438  -0.64314  -0.58967  -0.56552  -0.54614
 Alpha  occ. eigenvalues --   -0.52848  -0.50584  -0.49482  -0.48767  -0.47065
 Alpha  occ. eigenvalues --   -0.44402  -0.41271  -0.39838  -0.38709  -0.37419
 Alpha  occ. eigenvalues --   -0.37128  -0.36506  -0.34566  -0.32098  -0.15825
 Alpha virt. eigenvalues --    0.02768   0.04156   0.05280   0.05552   0.06161
 Alpha virt. eigenvalues --    0.06711   0.07514   0.08576   0.09820   0.10092
 Alpha virt. eigenvalues --    0.11872   0.12459   0.13162   0.14286   0.15582
 Alpha virt. eigenvalues --    0.16121   0.17237   0.18366   0.18608   0.19889
 Alpha virt. eigenvalues --    0.20500   0.22011   0.22311   0.22507   0.23139
 Alpha virt. eigenvalues --    0.24031   0.25192   0.25767   0.26037   0.26388
 Alpha virt. eigenvalues --    0.27411   0.27973   0.28813   0.28873   0.29627
 Alpha virt. eigenvalues --    0.29759   0.31059   0.31464   0.32225   0.32510
 Alpha virt. eigenvalues --    0.33173   0.35658   0.36794   0.37712   0.38421
 Alpha virt. eigenvalues --    0.39475   0.40175   0.40875   0.42755   0.44541
 Alpha virt. eigenvalues --    0.46554   0.47993   0.50081   0.52932   0.54270
 Alpha virt. eigenvalues --    0.55517   0.63786   0.72610   0.75898   0.78607
 Alpha virt. eigenvalues --    0.82523   0.83246   0.84986   0.90111   0.92869
 Alpha virt. eigenvalues --    0.95892   0.96379   0.99401   1.00257   1.01278
 Alpha virt. eigenvalues --    1.02866   1.03867   1.05477   1.07620   1.08750
 Alpha virt. eigenvalues --    1.10237   1.11075   1.12816   1.16372   1.17078
 Alpha virt. eigenvalues --    1.20601   1.21197   1.23209   1.23803   1.25913
 Alpha virt. eigenvalues --    1.26302   1.28090   1.30515   1.31227   1.33210
 Alpha virt. eigenvalues --    1.35126   1.36112   1.38176   1.40245   1.42004
 Alpha virt. eigenvalues --    1.42834   1.43375   1.44520   1.46870   1.47442
 Alpha virt. eigenvalues --    1.48980   1.52926   1.54664   1.56441   1.57791
 Alpha virt. eigenvalues --    1.59809   1.62003   1.62830   1.65003   1.67818
 Alpha virt. eigenvalues --    1.70672   1.73292   1.76167   1.80222   1.81530
 Alpha virt. eigenvalues --    1.83480   1.84628   1.86462   1.88398   1.91627
 Alpha virt. eigenvalues --    1.92155   1.96435   1.99102   2.02423   2.04208
 Alpha virt. eigenvalues --    2.05984   2.11713   2.14502   2.15610   2.19751
 Alpha virt. eigenvalues --    2.23393   2.26584   2.29650   2.33256   2.34983
 Alpha virt. eigenvalues --    2.36330   2.38648   2.41936   2.43933   2.47318
 Alpha virt. eigenvalues --    2.49443   2.51976   2.55275   2.56365   2.59788
 Alpha virt. eigenvalues --    2.61315   2.62792   2.64090   2.71668   2.72702
 Alpha virt. eigenvalues --    2.74054   2.76053   2.77611   2.81181   2.84178
 Alpha virt. eigenvalues --    2.85532   2.88802   2.92778   2.95206   2.98370
 Alpha virt. eigenvalues --    2.99485   3.03426   3.12248   3.14110   3.17403
 Alpha virt. eigenvalues --    3.24026   3.29979   3.32593   3.41610   3.46377
 Alpha virt. eigenvalues --    3.53223   3.65419   3.76033   3.80475   4.04958
 Alpha virt. eigenvalues --    4.13560   4.24687   4.36872   4.37200   4.41785
 Alpha virt. eigenvalues --    4.49051   4.50620   4.60374   4.71599   4.74289
  Beta  occ. eigenvalues --  -19.67182 -19.64286 -19.62218 -19.61085 -14.83312
  Beta  occ. eigenvalues --  -14.78876 -14.76330 -10.70306 -10.56320 -10.56130
  Beta  occ. eigenvalues --   -1.23143  -1.17972  -1.15191  -1.12668  -1.08133
  Beta  occ. eigenvalues --   -0.98632  -0.87196  -0.76083  -0.68661  -0.67246
  Beta  occ. eigenvalues --   -0.65222  -0.63855  -0.58417  -0.55192  -0.54194
  Beta  occ. eigenvalues --   -0.52581  -0.49953  -0.48811  -0.47767  -0.46757
  Beta  occ. eigenvalues --   -0.44097  -0.41081  -0.38439  -0.38108  -0.37313
  Beta  occ. eigenvalues --   -0.36314  -0.33764  -0.33527  -0.28754
  Beta virt. eigenvalues --   -0.00049   0.02339   0.04017   0.04925   0.05008
  Beta virt. eigenvalues --    0.06238   0.07273   0.07774   0.08407   0.09427
  Beta virt. eigenvalues --    0.11198   0.11546   0.12402   0.13074   0.13978
  Beta virt. eigenvalues --    0.15545   0.15949   0.16518   0.18364   0.18582
  Beta virt. eigenvalues --    0.19677   0.20613   0.22187   0.22295   0.22392
  Beta virt. eigenvalues --    0.23165   0.24087   0.25035   0.25396   0.25865
  Beta virt. eigenvalues --    0.26456   0.27421   0.27926   0.28634   0.28893
  Beta virt. eigenvalues --    0.29383   0.30063   0.31013   0.31324   0.32185
  Beta virt. eigenvalues --    0.32552   0.33157   0.35597   0.36536   0.37571
  Beta virt. eigenvalues --    0.38469   0.39417   0.40146   0.40808   0.42803
  Beta virt. eigenvalues --    0.44528   0.46552   0.47810   0.50435   0.53223
  Beta virt. eigenvalues --    0.54280   0.55507   0.64096   0.72783   0.75406
  Beta virt. eigenvalues --    0.79887   0.83081   0.83431   0.85125   0.90306
  Beta virt. eigenvalues --    0.93124   0.96050   0.97293   0.99715   1.00454
  Beta virt. eigenvalues --    1.01785   1.03519   1.04855   1.05785   1.08124
  Beta virt. eigenvalues --    1.09095   1.10651   1.11295   1.13027   1.16424
  Beta virt. eigenvalues --    1.17156   1.20597   1.21200   1.23445   1.23892
  Beta virt. eigenvalues --    1.26015   1.26523   1.28315   1.30756   1.31700
  Beta virt. eigenvalues --    1.33515   1.35481   1.36288   1.38607   1.40495
  Beta virt. eigenvalues --    1.42485   1.42969   1.43584   1.44825   1.47146
  Beta virt. eigenvalues --    1.47684   1.49468   1.53574   1.54804   1.56592
  Beta virt. eigenvalues --    1.58250   1.60101   1.62250   1.62987   1.65298
  Beta virt. eigenvalues --    1.68181   1.70826   1.73434   1.76225   1.80428
  Beta virt. eigenvalues --    1.81698   1.83720   1.84795   1.86702   1.88522
  Beta virt. eigenvalues --    1.91918   1.92536   1.96655   1.99534   2.02761
  Beta virt. eigenvalues --    2.04523   2.06294   2.12217   2.14939   2.16000
  Beta virt. eigenvalues --    2.20140   2.24362   2.26995   2.29941   2.33767
  Beta virt. eigenvalues --    2.35348   2.36688   2.38900   2.42371   2.44180
  Beta virt. eigenvalues --    2.47903   2.49569   2.52291   2.55680   2.56732
  Beta virt. eigenvalues --    2.60307   2.61600   2.63102   2.64447   2.71976
  Beta virt. eigenvalues --    2.73139   2.74571   2.76525   2.77903   2.81348
  Beta virt. eigenvalues --    2.84470   2.85953   2.89418   2.93246   2.95432
  Beta virt. eigenvalues --    2.98618   2.99938   3.03651   3.12529   3.14174
  Beta virt. eigenvalues --    3.17589   3.24271   3.30233   3.32880   3.41891
  Beta virt. eigenvalues --    3.46421   3.53237   3.65535   3.76572   3.80514
  Beta virt. eigenvalues --    4.04965   4.13934   4.24800   4.36922   4.37415
  Beta virt. eigenvalues --    4.41863   4.49282   4.50564   4.61111   4.71625
  Beta virt. eigenvalues --    4.75201
          Condensed to atoms (all electrons):
               1          2          3          4          5          6
     1  N   10.146974  -0.731527  -0.878063   0.946103  -2.153160   0.012700
     2  N   -0.731527   7.631325   0.359786  -0.295462   0.483141  -0.046667
     3  C   -0.878063   0.359786   6.642707  -0.582646   0.510536   0.416243
     4  C    0.946103  -0.295462  -0.582646   6.168699  -0.433665  -0.030798
     5  N   -2.153160   0.483141   0.510536  -0.433665   8.956379  -0.002154
     6  H    0.012700  -0.046667   0.416243  -0.030798  -0.002154   0.440336
     7  H    0.028857  -0.015308  -0.027945   0.400980  -0.063304   0.000508
     8  H    0.091324  -0.004498   0.007920  -0.002549   0.018123  -0.000023
     9  C   -0.040676   0.177756  -0.267018  -0.000783   0.077338  -0.010250
    10  O   -0.011664  -0.141391  -0.028837   0.025113   0.007184  -0.003404
    11  O    0.019038  -0.138484   0.030566   0.014824  -0.033007  -0.000361
    12  H   -0.002705   0.003503   0.000496  -0.000843   0.001025   0.000000
    13  O   -0.190317   0.052326   0.015722  -0.018330   0.032764   0.000066
    14  H    0.007659  -0.001447  -0.000579   0.000448  -0.000869  -0.000001
    15  H    0.016000  -0.021032   0.001940  -0.010572   0.027304   0.000003
    16  O    0.050037  -0.057535  -0.010099   0.006655   0.007228  -0.000007
    17  H   -0.003961   0.002517   0.001189  -0.001682   0.005958   0.000000
               7          8          9         10         11         12
     1  N    0.028857   0.091324  -0.040676  -0.011664   0.019038  -0.002705
     2  N   -0.015308  -0.004498   0.177756  -0.141391  -0.138484   0.003503
     3  C   -0.027945   0.007920  -0.267018  -0.028837   0.030566   0.000496
     4  C    0.400980  -0.002549  -0.000783   0.025113   0.014824  -0.000843
     5  N   -0.063304   0.018123   0.077338   0.007184  -0.033007   0.001025
     6  H    0.000508  -0.000023  -0.010250  -0.003404  -0.000361   0.000000
     7  H    0.477379  -0.000035  -0.000844  -0.000210   0.000019  -0.000000
     8  H   -0.000035   0.273269  -0.004203   0.000165  -0.002715   0.002227
     9  C   -0.000844  -0.004203   4.647700   0.434880   0.176987  -0.000156
    10  O   -0.000210   0.000165   0.434880   8.484382  -0.087561   0.000049
    11  O    0.000019  -0.002715   0.176987  -0.087561   8.560494   0.000230
    12  H   -0.000000   0.002227  -0.000156   0.000049   0.000230   0.258245
    13  O    0.000064   0.153700  -0.008404   0.001291   0.002859   0.032999
    14  H   -0.000000  -0.011304   0.000376   0.000087  -0.001236  -0.003895
    15  H   -0.000000   0.000057   0.012576   0.005592   0.149449   0.000692
    16  O    0.000008   0.003280   0.014747  -0.003048  -0.066432   0.264048
    17  H   -0.000000   0.000138  -0.000554   0.000073  -0.001252  -0.019143
              13         14         15         16         17
     1  N   -0.190317   0.007659   0.016000   0.050037  -0.003961
     2  N    0.052326  -0.001447  -0.021032  -0.057535   0.002517
     3  C    0.015722  -0.000579   0.001940  -0.010099   0.001189
     4  C   -0.018330   0.000448  -0.010572   0.006655  -0.001682
     5  N    0.032764  -0.000869   0.027304   0.007228   0.005958
     6  H    0.000066  -0.000001   0.000003  -0.000007   0.000000
     7  H    0.000064  -0.000000  -0.000000   0.000008  -0.000000
     8  H    0.153700  -0.011304   0.000057   0.003280   0.000138
     9  C   -0.008404   0.000376   0.012576   0.014747  -0.000554
    10  O    0.001291   0.000087   0.005592  -0.003048   0.000073
    11  O    0.002859  -0.001236   0.149449  -0.066432  -0.001252
    12  H    0.032999  -0.003895   0.000692   0.264048  -0.019143
    13  O    8.766709   0.286221   0.007425  -0.127340   0.002794
    14  H    0.286221   0.287122  -0.000255   0.004295   0.000039
    15  H    0.007425  -0.000255   0.289524   0.048293  -0.005037
    16  O   -0.127340   0.004295   0.048293   8.398874   0.297307
    17  H    0.002794   0.000039  -0.005037   0.297307   0.256687
          Atomic-Atomic Spin Densities.
               1          2          3          4          5          6
     1  N    0.614614  -0.124786   0.110058  -0.013981  -0.276198  -0.002321
     2  N   -0.124786   0.194800  -0.179046   0.022058   0.060910   0.003428
     3  C    0.110058  -0.179046   0.600467  -0.047576  -0.068205  -0.004417
     4  C   -0.013981   0.022058  -0.047576  -0.166833   0.017928   0.000459
     5  N   -0.276198   0.060910  -0.068205   0.017928   0.569108   0.001234
     6  H   -0.002321   0.003428  -0.004417   0.000459   0.001234  -0.013622
     7  H    0.001818  -0.000567  -0.000912   0.003523  -0.002652   0.000021
     8  H    0.026122  -0.010204  -0.003289   0.002424  -0.011524   0.000001
     9  C   -0.009490   0.085744  -0.110280   0.036129  -0.014618   0.001013
    10  O    0.010274  -0.033874   0.026991  -0.003222  -0.002157   0.000465
    11  O    0.010515  -0.020081   0.007327  -0.001814  -0.001315   0.000065
    12  H    0.000315  -0.000504  -0.000292   0.000107  -0.000142   0.000000
    13  O   -0.037092   0.013319   0.006271  -0.005327   0.025047   0.000001
    14  H    0.001954  -0.001048  -0.000037   0.000073  -0.000805  -0.000000
    15  H    0.001716  -0.001614   0.001374  -0.000459   0.000210  -0.000001
    16  O   -0.002238   0.003398   0.002685  -0.001285   0.000754  -0.000001
    17  H   -0.000409  -0.000137  -0.000492   0.000230  -0.000284  -0.000000
               7          8          9         10         11         12
     1  N    0.001818   0.026122  -0.009490   0.010274   0.010515   0.000315
     2  N   -0.000567  -0.010204   0.085744  -0.033874  -0.020081  -0.000504
     3  C   -0.000912  -0.003289  -0.110280   0.026991   0.007327  -0.000292
     4  C    0.003523   0.002424   0.036129  -0.003222  -0.001814   0.000107
     5  N   -0.002652  -0.011524  -0.014618  -0.002157  -0.001315  -0.000142
     6  H    0.000021   0.000001   0.001013   0.000465   0.000065   0.000000
     7  H    0.003133   0.000001  -0.000168   0.000007  -0.000000  -0.000000
     8  H    0.000001  -0.002731   0.001430   0.000016   0.001189   0.000377
     9  C   -0.000168   0.001430   0.216175  -0.065368  -0.032782   0.000273
    10  O    0.000007   0.000016  -0.065368   0.129253   0.011919   0.000010
    11  O   -0.000000   0.001189  -0.032782   0.011919   0.047233   0.000368
    12  H   -0.000000   0.000377   0.000273   0.000010   0.000368  -0.000225
    13  O    0.000002  -0.004281  -0.002750  -0.000405  -0.003555  -0.000426
    14  H    0.000000  -0.000032   0.000010   0.000013   0.000282   0.000014
    15  H    0.000000  -0.000381  -0.001325  -0.000224  -0.000604  -0.000201
    16  O    0.000000  -0.000731  -0.002652   0.000027  -0.000630  -0.000119
    17  H   -0.000000   0.000139   0.000433  -0.000006   0.000078   0.000189
              13         14         15         16         17
     1  N   -0.037092   0.001954   0.001716  -0.002238  -0.000409
     2  N    0.013319  -0.001048  -0.001614   0.003398  -0.000137
     3  C    0.006271  -0.000037   0.001374   0.002685  -0.000492
     4  C   -0.005327   0.000073  -0.000459  -0.001285   0.000230
     5  N    0.025047  -0.000805   0.000210   0.000754  -0.000284
     6  H    0.000001  -0.000000  -0.000001  -0.000001  -0.000000
     7  H    0.000002   0.000000   0.000000   0.000000  -0.000000
     8  H   -0.004281  -0.000032  -0.000381  -0.000731   0.000139
     9  C   -0.002750   0.000010  -0.001325  -0.002652   0.000433
    10  O   -0.000405   0.000013  -0.000224   0.000027  -0.000006
    11  O   -0.003555   0.000282  -0.000604  -0.000630   0.000078
    12  H   -0.000426   0.000014  -0.000201  -0.000119   0.000189
    13  O    0.019528   0.000047   0.000595   0.001888  -0.000291
    14  H    0.000047  -0.000448  -0.000022  -0.000183   0.000010
    15  H    0.000595  -0.000022   0.000031   0.000863  -0.000023
    16  O    0.001888  -0.000183   0.000863   0.001155  -0.000318
    17  H   -0.000291   0.000010  -0.000023  -0.000318   0.000418
 Mulliken charges and spin densities:
               1          2
     1  N   -0.306620   0.310871
     2  N   -0.257003   0.011797
     3  C   -0.191918   0.340629
     4  C   -0.185491  -0.157568
     5  N   -0.440820   0.297289
     6  H    0.223810  -0.013674
     7  H    0.199833   0.004208
     8  H    0.475123  -0.001474
     9  C    0.790527   0.101774
    10  O   -0.682700   0.073719
    11  O   -0.623417   0.018197
    12  H    0.463228  -0.000257
    13  O   -1.010547   0.012573
    14  H    0.433337  -0.000171
    15  H    0.478042  -0.000065
    16  O   -0.830310   0.002613
    17  H    0.464928  -0.000462
 Sum of Mulliken charges =  -1.00000   1.00000
 Mulliken charges and spin densities with hydrogens summed into heavy atoms:
               1          2
     1  N   -0.306620   0.310871
     2  N   -0.257003   0.011797
     3  C    0.031891   0.326955
     4  C    0.014342  -0.153360
     5  N   -0.440820   0.297289
     9  C    0.790527   0.101774
    10  O   -0.682700   0.073719
    11  O   -0.145376   0.018131
    13  O   -0.102087   0.010928
    16  O    0.097845   0.001895
 Electronic spatial extent (au):  <R**2>=           1580.3710
 Charge=             -1.0000 electrons
 Dipole moment (field-independent basis, Debye):
    X=             -0.4366    Y=             -1.8691    Z=             -0.4603  Tot=              1.9738
 Quadrupole moment (field-independent basis, Debye-Ang):
   XX=            -71.0167   YY=            -97.0098   ZZ=            -58.3390
   XY=              4.2482   XZ=             -0.9438   YZ=              0.2454
 Traceless Quadrupole moment (field-independent basis, Debye-Ang):
   XX=              4.4385   YY=            -21.5546   ZZ=             17.1162
   XY=              4.2482   XZ=             -0.9438   YZ=              0.2454
 Octapole moment (field-independent basis, Debye-Ang**2):
  XXX=            -27.5420  YYY=            -12.0573  ZZZ=              4.5430  XYY=              9.2944
  XXY=             -8.8610  XXZ=             -2.5642  XZZ=             26.5920  YZZ=              2.0673
  YYZ=             -7.1337  XYZ=             11.6864
 Hexadecapole moment (field-independent basis, Debye-Ang**3):
 XXXX=          -1124.6200 YYYY=          -1046.3752 ZZZZ=           -122.1663 XXXY=             21.7162
 XXXZ=              1.9559 YYYX=             42.4248 YYYZ=            -12.4785 ZZZX=              0.7091
 ZZZY=             -9.7854 XXYY=           -351.1759 XXZZ=           -185.5257 YYZZ=           -173.7844
 XXYZ=             25.0999 YYXZ=            -10.8308 ZZXY=            -14.4983
 N-N= 5.676489011145D+02 E-N=-2.516559987030D+03  KE= 5.791189913744D+02
                          Isotropic Fermi Contact Couplings
        Atom                 a.u.       MegaHertz       Gauss      10(-4) cm-1
     1  N(14)              0.08446      27.28788       9.73700       9.10226
     2  N(14)             -0.00154      -0.49712      -0.17738      -0.16582
     3  C(13)              0.04325      48.61980      17.34875      16.21782
     4  C(13)             -0.03132     -35.21009     -12.56383     -11.74482
     5  N(14)              0.06689      21.61164       7.71157       7.20887
     6  H(1)              -0.00461     -20.59753      -7.34971      -6.87059
     7  H(1)               0.00107       4.78666       1.70800       1.59666
     8  H(1)               0.00079       3.51168       1.25306       1.17137
     9  C(13)              0.02323      26.11304       9.31778       8.71037
    10  O(17)              0.01744     -10.57126      -3.77209      -3.52619
    11  O(17)              0.00497      -3.01035      -1.07417      -1.00414
    12  H(1)              -0.00002      -0.09803      -0.03498      -0.03270
    13  O(17)              0.00707      -4.28592      -1.52932      -1.42963
    14  H(1)              -0.00017      -0.78056      -0.27852      -0.26037
    15  H(1)              -0.00029      -1.29910      -0.46355      -0.43333
    16  O(17)              0.00032      -0.19371      -0.06912      -0.06461
    17  H(1)              -0.00002      -0.09465      -0.03377      -0.03157
 --------------------------------------------------------
       Center         ----  Spin Dipole Couplings  ----
                      3XX-RR        3YY-RR        3ZZ-RR
 --------------------------------------------------------
     1   Atom       -0.411173     -0.345200      0.756373
     2   Atom       -0.126545     -0.105279      0.231824
     3   Atom       -0.133898     -0.121535      0.255433
     4   Atom        0.061344      0.044074     -0.105417
     5   Atom       -0.296069     -0.271223      0.567292
     6   Atom        0.000903      0.001531     -0.002433
     7   Atom        0.004684      0.001003     -0.005687
     8   Atom        0.032416     -0.016895     -0.015521
     9   Atom       -0.064435     -0.059701      0.124136
    10   Atom       -0.125004     -0.148327      0.273331
    11   Atom       -0.043052     -0.051471      0.094523
    12   Atom        0.005969     -0.002724     -0.003246
    13   Atom        0.041151     -0.020352     -0.020799
    14   Atom        0.001422     -0.003194      0.001772
    15   Atom        0.004972      0.001769     -0.006741
    16   Atom        0.008737     -0.005360     -0.003377
    17   Atom        0.003995     -0.002526     -0.001469
 --------------------------------------------------------
                        XY            XZ            YZ
 --------------------------------------------------------
     1   Atom       -0.010263      0.040399     -0.254805
     2   Atom        0.001559      0.023258     -0.016503
     3   Atom       -0.006450      0.003151     -0.088701
     4   Atom       -0.005062     -0.009324      0.036058
     5   Atom       -0.014358      0.049950     -0.163506
     6   Atom       -0.021368     -0.004917     -0.000072
     7   Atom       -0.003210     -0.001367      0.001772
     8   Atom       -0.012452      0.015864     -0.003637
     9   Atom        0.009983      0.053735      0.030672
    10   Atom        0.002232      0.097585     -0.012393
    11   Atom       -0.006359      0.058093     -0.014555
    12   Atom        0.000732      0.000230     -0.000491
    13   Atom       -0.013711      0.016817     -0.003165
    14   Atom       -0.000812      0.004250      0.000722
    15   Atom        0.002492     -0.001208      0.001389
    16   Atom        0.001736      0.003685      0.000407
    17   Atom        0.000481     -0.003018      0.000400
 --------------------------------------------------------


 ---------------------------------------------------------------------------------
              Anisotropic Spin Dipole Couplings in Principal Axis System
 ---------------------------------------------------------------------------------

       Atom             a.u.   MegaHertz   Gauss  10(-4) cm-1        Axes

              Baa    -0.4127   -15.919    -5.680    -5.310  0.9927  0.1205 -0.0080
     1 N(14)  Bbb    -0.4011   -15.471    -5.520    -5.160 -0.1159  0.9692  0.2174
              Bcc     0.8139    31.389    11.200    10.470  0.0340 -0.2149  0.9761
 
              Baa    -0.1284    -4.950    -1.766    -1.651  0.9908 -0.1165 -0.0693
     2 N(14)  Bbb    -0.1058    -4.079    -1.455    -1.361  0.1195  0.9920  0.0403
              Bcc     0.2341     9.029     3.222     3.012  0.0641 -0.0482  0.9968
 
              Baa    -0.1444   -19.374    -6.913    -6.463  0.4735  0.8607  0.1872
     3 C(13)  Bbb    -0.1309   -17.570    -6.269    -5.861  0.8807 -0.4600 -0.1128
              Bcc     0.2753    36.944    13.183    12.323  0.0110 -0.2183  0.9758
 
              Baa    -0.1140   -15.301    -5.460    -5.104  0.0454 -0.2208  0.9743
     4 C(13)  Bbb     0.0486     6.519     2.326     2.174  0.4703  0.8652  0.1741
              Bcc     0.0654     8.782     3.134     2.929  0.8814 -0.4503 -0.1431
 
              Baa    -0.3056   -11.786    -4.206    -3.931  0.5959  0.7948  0.1148
     5 N(14)  Bbb    -0.2954   -11.394    -4.066    -3.801  0.8010 -0.5780 -0.1559
              Bcc     0.6010    23.180     8.271     7.732  0.0576 -0.1849  0.9811
 
              Baa    -0.0208   -11.124    -3.969    -3.711  0.7095  0.6780  0.1921
     6 H(1)   Bbb    -0.0022    -1.172    -0.418    -0.391 -0.0434 -0.2300  0.9722
              Bcc     0.0230    12.296     4.388     4.102  0.7034 -0.6981 -0.1338
 
              Baa    -0.0062    -3.287    -1.173    -1.096  0.0594 -0.2145  0.9749
     7 H(1)   Bbb    -0.0007    -0.388    -0.138    -0.129  0.5323  0.8330  0.1509
              Bcc     0.0069     3.675     1.311     1.226  0.8444 -0.5100 -0.1637
 
              Baa    -0.0203   -10.841    -3.868    -3.616 -0.3265 -0.2082  0.9220
     8 H(1)   Bbb    -0.0198   -10.577    -3.774    -3.528  0.1460  0.9526  0.2669
              Bcc     0.0401    21.417     7.642     7.144  0.9338 -0.2218  0.2806
 
              Baa    -0.0789   -10.587    -3.778    -3.531  0.9638 -0.1235 -0.2364
     9 C(13)  Bbb    -0.0646    -8.666    -3.092    -2.891  0.0808  0.9799 -0.1823
              Bcc     0.1435    19.253     6.870     6.422  0.2542  0.1566  0.9544
 
              Baa    -0.1531    11.080     3.954     3.696 -0.6490  0.7415  0.1701
    10 O(17)  Bbb    -0.1431    10.357     3.696     3.455  0.7266  0.6705 -0.1503
              Bcc     0.2963   -21.437    -7.649    -7.151  0.2255 -0.0260  0.9739
 
              Baa    -0.0644     4.659     1.662     1.554  0.9383  0.0841 -0.3353
    11 O(17)  Bbb    -0.0529     3.826     1.365     1.276 -0.0472  0.9921  0.1166
              Bcc     0.1173    -8.485    -3.028    -2.830  0.3425 -0.0936  0.9349
 
              Baa    -0.0036    -1.908    -0.681    -0.637 -0.0615  0.5375  0.8410
    12 H(1)   Bbb    -0.0025    -1.311    -0.468    -0.437 -0.0582  0.8392 -0.5407
              Bcc     0.0060     3.220     1.149     1.074  0.9964  0.0822  0.0203
 
              Baa    -0.0251     1.817     0.649     0.606 -0.2730 -0.1548  0.9495
    13 O(17)  Bbb    -0.0232     1.678     0.599     0.560  0.1534  0.9673  0.2018
              Bcc     0.0483    -3.495    -1.247    -1.166  0.9497 -0.2007  0.2403
 
              Baa    -0.0040    -2.158    -0.770    -0.720  0.4469  0.7875 -0.4244
    14 H(1)   Bbb    -0.0018    -0.964    -0.344    -0.322 -0.5658  0.6163  0.5477
              Bcc     0.0059     3.122     1.114     1.041  0.6929 -0.0046  0.7211
 
              Baa    -0.0072    -3.830    -1.367    -1.278  0.1354 -0.1887  0.9726
    15 H(1)   Bbb     0.0008     0.445     0.159     0.148 -0.4518  0.8619  0.2302
              Bcc     0.0063     3.386     1.208     1.129  0.8818  0.4706 -0.0315
 
              Baa    -0.0056     0.403     0.144     0.134 -0.1285  0.9912  0.0319
    16 O(17)  Bbb    -0.0044     0.319     0.114     0.106 -0.2614 -0.0649  0.9630
              Bcc     0.0100    -0.722    -0.258    -0.241  0.9566  0.1154  0.2675
 
              Baa    -0.0032    -1.733    -0.619    -0.578  0.3370 -0.6178  0.7105
    17 H(1)   Bbb    -0.0021    -1.118    -0.399    -0.373  0.2238  0.7856  0.5769
              Bcc     0.0053     2.851     1.017     0.951  0.9145  0.0354 -0.4030
 

 ---------------------------------------------------------------------------------

 D1PCM: PCM CHGder 1st derivatives, ID1Alg=3 FixD1E=F DoIter=F DoCFld=F I1PDM=0.
 Calling FoFJK, ICntrl=      2127 FMM=F ISym2X=0 I1Cent= 0 IOpClX= 1 NMat=1 NMatS=1 NMatT=0.
 ***** Axes restored to original set *****
 -------------------------------------------------------------------
 Center     Atomic                   Forces (Hartrees/Bohr)
 Number     Number              X              Y              Z
 -------------------------------------------------------------------
      1        7          -0.006600724   -0.002113816    0.005403885
      2        7          -0.009343397    0.006063692    0.006795826
      3        6           0.004571861   -0.002028050   -0.000354044
      4        6           0.009346951    0.001381934   -0.002993079
      5        7          -0.006645709    0.011303988    0.001181664
      6        1           0.002697049   -0.001563487   -0.000382541
      7        1           0.000615037    0.000957306   -0.000707060
      8        1          -0.000675925    0.008361459   -0.032600786
      9        6           0.015372203   -0.034324213   -0.002545719
     10        8           0.007908922    0.020444906   -0.002924616
     11        8          -0.011818404   -0.022196740    0.003222057
     12        1           0.018130141   -0.112463933   -0.138968885
     13        8          -0.000701220   -0.022865976    0.007200753
     14        1           0.012595765    0.003749812    0.000407314
     15        1          -0.001387554    0.031033062    0.002687730
     16        8          -0.032786373    0.115830227    0.150651929
     17        1          -0.001278623   -0.001570173    0.003925572
 -------------------------------------------------------------------
 Cartesian Forces:  Max     0.150651929 RMS     0.038465264

 GradGradGradGradGradGradGradGradGradGradGradGradGradGradGradGradGradGrad
 Berny optimization.
 FormGI is forming the generalized inverse of G from B-inverse, IUseBI=4.
 Internal  Forces:  Max     0.193807906 RMS     0.023225586
 Search for a local minimum.
 Step number   1 out of a maximum of   89
 All quantities printed in internal units (Hartrees-Bohrs-Radians)
 Mixed Optimization -- RFO/linear search
 Second derivative matrix not updated -- first step.
 ITU=  0
     Eigenvalues ---    0.00246   0.00374   0.00708   0.01276   0.01694
     Eigenvalues ---    0.01882   0.02142   0.02169   0.02205   0.02381
     Eigenvalues ---    0.02428   0.02633   0.03455   0.05607   0.06180
     Eigenvalues ---    0.07648   0.09024   0.09777   0.10729   0.11529
     Eigenvalues ---    0.12879   0.14177   0.15973   0.15989   0.16000
     Eigenvalues ---    0.20841   0.21655   0.22649   0.23822   0.24993
     Eigenvalues ---    0.32874   0.35781   0.36001   0.36541   0.39168
     Eigenvalues ---    0.43836   0.45557   0.47493   0.50900   0.54571
     Eigenvalues ---    0.54783   0.55068   0.63045   0.82313   0.92720
 RFO step:  Lambda=-6.05749945D-02 EMin= 2.46386995D-03
 Linear search not attempted -- first point.
 Maximum step size (   0.300) exceeded in Quadratic search.
    -- Step size scaled by   0.835
 Iteration  1 RMS(Cart)=  0.05370174 RMS(Int)=  0.00166598
 Iteration  2 RMS(Cart)=  0.00213182 RMS(Int)=  0.00029088
 Iteration  3 RMS(Cart)=  0.00000358 RMS(Int)=  0.00029086
 Iteration  4 RMS(Cart)=  0.00000000 RMS(Int)=  0.00029086
 Variable       Old X    -DE/DX   Delta X   Delta X   Delta X     New X
                                 (Linear)    (Quad)   (Total)
    R1        2.66398  -0.00285   0.00000  -0.00453  -0.00431   2.65967
    R2        2.57870  -0.00551   0.00000  -0.00696  -0.00698   2.57173
    R3        2.72263   0.00780   0.00000   0.01918   0.01921   2.74184
    R4        2.62928   0.00867   0.00000   0.01315   0.01317   2.64245
    R5        2.63783  -0.01244   0.00000  -0.02389  -0.02386   2.61398
    R6        2.59872  -0.00489   0.00000  -0.00859  -0.00859   2.59013
    R7        2.03244   0.00073   0.00000   0.00143   0.00143   2.03387
    R8        2.53669   0.00654   0.00000   0.00834   0.00832   2.54501
    R9        2.04426  -0.00008   0.00000  -0.00016  -0.00016   2.04410
   R10        2.07856  -0.00947   0.00000  -0.02741  -0.02739   2.05117
   R11        2.31704   0.02107   0.00000   0.01780   0.01780   2.33485
   R12        2.47555   0.01927   0.00000   0.02092   0.02075   2.49630
   R13        2.00078  -0.01703   0.00000  -0.03051  -0.03073   1.97006
   R14        2.95722   0.01647   0.00000   0.11899   0.11915   3.07637
   R15        1.62147   0.19381   0.00000   0.18427   0.18441   1.80588
   R16        1.81772   0.00051   0.00000   0.00070   0.00070   1.81841
   R17        2.81659   0.00788   0.00000   0.03503   0.03479   2.85138
   R18        1.82025   0.00376   0.00000   0.00516   0.00516   1.82541
    A1        1.88797  -0.00432   0.00000  -0.02133  -0.02131   1.86665
    A2        2.10955   0.00339   0.00000  -0.00185  -0.00174   2.10781
    A3        2.01685  -0.00333   0.00000  -0.00183  -0.00201   2.01484
    A4        1.87713   0.00337   0.00000   0.01565   0.01547   1.89260
    A5        2.20104   0.00269   0.00000  -0.00910  -0.00902   2.19203
    A6        2.15909  -0.00527   0.00000  -0.00071  -0.00078   2.15831
    A7        1.83241  -0.00151   0.00000  -0.00478  -0.00471   1.82770
    A8        2.10457   0.00381   0.00000   0.01399   0.01396   2.11852
    A9        2.34575  -0.00232   0.00000  -0.00911  -0.00914   2.33661
   A10        1.96028  -0.00400   0.00000  -0.01185  -0.01182   1.94846
   A11        2.22512   0.00075   0.00000   0.00120   0.00118   2.22630
   A12        2.09776   0.00324   0.00000   0.01064   0.01063   2.10839
   A13        1.86378   0.00675   0.00000   0.02338   0.02338   1.88716
   A14        2.06592   0.00315   0.00000   0.01819   0.01829   2.08420
   A15        2.06398   0.00879   0.00000   0.00517   0.00497   2.06895
   A16        2.15291  -0.01186   0.00000  -0.02323  -0.02315   2.12976
   A17        1.98452   0.01990   0.00000   0.05715   0.05662   2.04114
   A18        1.38682   0.00566   0.00000   0.03267   0.03257   1.41939
   A19        2.11783  -0.01171   0.00000  -0.08424  -0.08404   2.03379
   A20        1.97458  -0.00278   0.00000   0.01008   0.01022   1.98480
   A21        2.63727   0.01631   0.00000   0.04533   0.04570   2.68297
   A22        1.53916  -0.00904   0.00000   0.01718   0.01673   1.55589
   A23        1.87044   0.00040   0.00000   0.00765   0.00760   1.87804
   A24        1.85097   0.00196   0.00000  -0.00413  -0.00401   1.84695
   A25        3.02270   0.00954   0.00000   0.04864   0.04817   3.07088
   A26        2.95783  -0.01759   0.00000  -0.04762  -0.04782   2.91000
   A27        2.98294   0.00785   0.00000   0.11723   0.11805   3.10100
   A28        3.23179  -0.00743   0.00000  -0.03911  -0.03866   3.19313
    D1       -0.07428   0.00368   0.00000   0.01279   0.01290  -0.06138
    D2       -2.90212   0.00209   0.00000  -0.00720  -0.00711  -2.90923
    D3       -2.45639   0.01053   0.00000   0.04367   0.04298  -2.41341
    D4        0.99896   0.00894   0.00000   0.02368   0.02297   1.02193
    D5        0.07316  -0.00286   0.00000  -0.01224  -0.01243   0.06073
    D6        2.50042  -0.00598   0.00000  -0.04064  -0.03990   2.46052
    D7       -1.49115   0.00093   0.00000  -0.01084  -0.01175  -1.50290
    D8        0.44727   0.00021   0.00000   0.00252   0.00197   0.44924
    D9        2.50758   0.00528   0.00000  -0.01248  -0.01244   2.49514
   D10       -1.83719   0.00456   0.00000   0.00088   0.00129  -1.83591
   D11        0.04484  -0.00273   0.00000  -0.00717  -0.00730   0.03754
   D12       -3.06853  -0.00203   0.00000  -0.01030  -0.01045  -3.07898
   D13        2.88203   0.00053   0.00000   0.01025   0.01031   2.89234
   D14       -0.23134   0.00123   0.00000   0.00712   0.00717  -0.22417
   D15        3.02933   0.00924   0.00000   0.02965   0.02935   3.05868
   D16       -0.14087   0.01193   0.00000   0.03393   0.03337  -0.10750
   D17        0.24929   0.00565   0.00000   0.00430   0.00411   0.25340
   D18       -2.92091   0.00834   0.00000   0.00857   0.00813  -2.91278
   D19        0.00017   0.00102   0.00000   0.00000  -0.00005   0.00012
   D20        3.13390   0.00061   0.00000  -0.00192  -0.00184   3.13206
   D21        3.10775   0.00034   0.00000   0.00437   0.00426   3.11200
   D22       -0.04171  -0.00007   0.00000   0.00244   0.00247  -0.03924
   D23       -0.04641   0.00106   0.00000   0.00722   0.00747  -0.03894
   D24        3.10241   0.00145   0.00000   0.00903   0.00915   3.11156
   D25        0.07990   0.01172   0.00000   0.02874   0.02866   0.10856
   D26       -3.09183   0.01485   0.00000   0.03401   0.03353  -3.05830
   D27        3.13285   0.00310   0.00000   0.00699   0.00760   3.14045
   D28        0.86909  -0.01002   0.00000  -0.08201  -0.08232   0.78677
   D29       -0.96224  -0.00784   0.00000  -0.07180  -0.07188  -1.03412
   D30       -1.19234   0.00430   0.00000   0.00293   0.00291  -1.18944
   D31       -3.02367   0.00648   0.00000   0.01314   0.01334  -3.01033
   D32        2.21583   0.00428   0.00000  -0.00202  -0.00177   2.21406
   D33       -2.19375   0.00218   0.00000   0.01073   0.01077  -2.18298
         Item               Value     Threshold  Converged?
 Maximum Force            0.193808     0.000450     NO 
 RMS     Force            0.023226     0.000300     NO 
 Maximum Displacement     0.186578     0.001800     NO 
 RMS     Displacement     0.053306     0.001200     NO 
 Predicted change in Energy=-3.281263D-02
 GradGradGradGradGradGradGradGradGradGradGradGradGradGradGradGradGradGrad

                          Input orientation:                          
 ---------------------------------------------------------------------
 Center     Atomic      Atomic             Coordinates (Angstroms)
 Number     Number       Type             X           Y           Z
 ---------------------------------------------------------------------
      1          7           0        0.108372   -0.941415    0.220326
      2          7           0        0.807767    0.235314   -0.106834
      3          6           0        2.177569   -0.045159   -0.089882
      4          6           0        2.255536   -1.383357    0.196114
      5          7           0        1.034558   -1.929720    0.352525
      6          1           0        2.909682    0.726107   -0.255812
      7          1           0        3.148448   -1.986724    0.289451
      8          1           0       -1.099080   -1.310304   -0.494621
      9          6           0        0.286997    1.516421   -0.075787
     10          8           0        1.028659    2.478590   -0.301049
     11          8           0       -1.002422    1.667859    0.168057
     12          1           0       -2.637019   -0.540913    0.086857
     13          8           0       -2.003824   -1.505327   -1.061696
     14          1           0       -2.045027   -1.131146   -1.947268
     15          1           0       -1.538842    0.811100    0.423091
     16          8           0       -2.791573    0.064333    0.810060
     17          1           0       -2.578813   -0.399856    1.630032
 ---------------------------------------------------------------------
                    Distance matrix (angstroms):
                    1          2          3          4          5
     1  N    0.000000
     2  N    1.407436   0.000000
     3  C    2.276199   1.398324   0.000000
     4  C    2.192308   2.192695   1.370638   0.000000
     5  N    1.360899   2.224818   2.248059   1.346761   0.000000
     6  H    3.294643   2.163589   1.076277   2.254325   3.307504
     7  H    3.215511   3.251658   2.203672   1.081690   2.115598
     8  H    1.450920   2.485031   3.535653   3.425771   2.377761
     9  C    2.482044   1.383257   2.452141   3.515365   3.552209
    10  O    3.579832   2.262477   2.780988   4.082529   4.456500
    11  O    2.836354   2.324766   3.621231   4.463743   4.138344
    12  H    2.777658   3.536466   4.843271   4.965757   3.934443
    13  O    2.534354   3.441894   4.534376   4.442872   3.378150
    14  H    3.061304   3.659623   4.739153   4.811708   3.925635
    15  H    2.413656   2.473646   3.848121   4.389131   3.760248
    16  O    3.125539   3.718222   5.051164   5.286402   4.338763
    17  H    3.082453   3.858635   5.070215   5.137541   4.126616
                    6          7          8          9         10
     6  H    0.000000
     7  H    2.777368   0.000000
     8  H    4.502685   4.371934   0.000000
     9  C    2.745083   4.537987   3.176005   0.000000
    10  O    2.571282   4.978074   4.349766   1.235547   0.000000
    11  O    4.046124   5.531766   3.052530   1.320983   2.236658
    12  H    5.699882   5.966828   1.815306   3.578958   4.764984
    13  O    5.456307   5.348200   1.085435   3.918014   5.064202
    14  H    5.555137   5.719012   1.742726   3.993792   5.018742
    15  H    4.500833   5.460436   2.352858   2.019912   3.145944
    16  O    5.837665   6.305689   2.540935   3.517225   4.653748
    17  H    5.911664   6.092357   2.744572   3.846401   5.002837
                   11         12         13         14         15
    11  O    0.000000
    12  H    2.749032   0.000000
    13  O    3.547423   1.627944   0.000000
    14  H    3.660061   2.199203   0.962262   0.000000
    15  H    1.042509   1.773974   2.790454   3.105984   0.000000
    16  O    2.486870   0.955632   2.566681   3.096669   1.508887
    17  H    2.982922   1.550701   2.966155   3.690093   2.001165
                   16         17
    16  O    0.000000
    17  H    0.965967   0.000000
 Stoichiometry    C3H7N3O4(1-,2)
 Framework group  C1[X(C3H7N3O4)]
 Deg. of freedom    45
 Full point group                 C1      NOp   1
 Largest Abelian subgroup         C1      NOp   1
 Largest concise Abelian subgroup C1      NOp   1
                         Standard orientation:                         
 ---------------------------------------------------------------------
 Center     Atomic      Atomic             Coordinates (Angstroms)
 Number     Number       Type             X           Y           Z
 ---------------------------------------------------------------------
      1          7           0       -0.100151   -0.936315   -0.237984
      2          7           0       -0.810560    0.229208    0.105164
      3          6           0       -2.178193   -0.060053    0.070220
      4          6           0       -2.244360   -1.393009   -0.242029
      5          7           0       -1.018285   -1.928081   -0.397599
      6          1           0       -2.917065    0.702967    0.244117
      7          1           0       -3.132218   -2.000438   -0.355120
      8          1           0        1.103258   -1.310765    0.480879
      9          6           0       -0.298344    1.514133    0.103433
     10          8           0       -1.048618    2.466815    0.340211
     11          8           0        0.992167    1.678854   -0.125570
     12          1           0        2.641096   -0.520076   -0.071570
     13          8           0        2.004129   -1.510573    1.052436
     14          1           0        2.034707   -1.153188    1.945346
     15          1           0        1.536757    0.830758   -0.391990
     16          8           0        2.798055    0.099960   -0.781607
     17          1           0        2.595952   -0.349821   -1.612235
 ---------------------------------------------------------------------
 Rotational constants (GHZ):           1.4681330           1.1338315           0.7131394
 Standard basis: 6-31+G(d,p) (6D, 7F)
 There are   225 symmetry adapted cartesian basis functions of A   symmetry.
 There are   225 symmetry adapted basis functions of A   symmetry.
   225 basis functions,   369 primitive gaussians,   225 cartesian basis functions
    40 alpha electrons       39 beta electrons
       nuclear repulsion energy       563.6947043413 Hartrees.
 NAtoms=   17 NActive=   17 NUniq=   17 SFac= 1.00D+00 NAtFMM=   60 NAOKFM=F Big=F
 Integral buffers will be    131072 words long.
 Raffenetti 2 integral format.
 Two-electron integral symmetry is turned on.
 ------------------------------------------------------------------------------
 Polarizable Continuum Model (PCM)
 =================================
 Model                : PCM.
 Atomic radii         : SMD-Coulomb.
 Polarization charges : Total charges.
 Charge compensation  : None.
 Solution method      : On-the-fly selection.
 Cavity type          : VdW (van der Waals Surface) (Alpha=1.000).
 Cavity algorithm     : GePol (No added spheres)
                        Default sphere list used, NSphG=   17.
                        Lebedev-Laikov grids with approx.  5.0 points / Ang**2.
                        Smoothing algorithm: York/Karplus (Gamma=1.0000).
                        Polarization charges: spherical gaussians, with
                                              point-specific exponents (IZeta= 3).
                        Self-potential: point-specific (ISelfS= 7).
                        Self-field    : sphere-specific E.n sum rule (ISelfD= 2).
 1st derivatives      : Analytical E(r).r(x)/FMM algorithm (CHGder, D1EAlg=3).
                        Cavity 1st derivative terms included.
 Solvent              : Water, Eps=  78.355300 Eps(inf)=   1.777849
 ------------------------------------------------------------------------------
 Spheres list:
 ISph  on   Nord     Re0    Alpha      Xe            Ye            Ze
    1   N      1    1.8900  1.000     -0.100151     -0.936315     -0.237984
    2   N      2    1.8900  1.000     -0.810560      0.229208      0.105164
    3   C      3    1.8500  1.000     -2.178193     -0.060053      0.070220
    4   C      4    1.8500  1.000     -2.244360     -1.393009     -0.242029
    5   N      5    1.8900  1.000     -1.018285     -1.928081     -0.397599
    6   H      6    1.2000  1.000     -2.917065      0.702967      0.244117
    7   H      7    1.2000  1.000     -3.132218     -2.000438     -0.355120
    8   H      8    1.2000  1.000      1.103258     -1.310765      0.480879
    9   C      9    1.8500  1.000     -0.298344      1.514133      0.103433
   10   O     10    1.5200  1.000     -1.048618      2.466815      0.340211
   11   O     11    1.5200  1.000      0.992167      1.678854     -0.125570
   12   H     12    1.2000  1.000      2.641096     -0.520076     -0.071570
   13   O     13    1.5200  1.000      2.004129     -1.510573      1.052436
   14   H     14    1.2000  1.000      2.034707     -1.153188      1.945346
   15   H     15    1.2000  1.000      1.536757      0.830758     -0.391990
   16   O     16    1.5200  1.000      2.798055      0.099960     -0.781607
   17   H     17    1.2000  1.000      2.595952     -0.349821     -1.612235
 ------------------------------------------------------------------------------
 ------------------------------------------------------------------------------
 Atomic radii for non-electrostatic terms: SMD-CDS.
 ------------------------------------------------------------------------------
 Nuclear repulsion after PCM non-electrostatic terms =      563.7026650461 Hartrees.
 One-electron integrals computed using PRISM.
 NBasis=   225 RedAO= T EigKep=  2.50D-05  NBF=   225
 NBsUse=   225 1.00D-06 EigRej= -1.00D+00 NBFU=   225
 Initial guess from the checkpoint file:  "/scratch/gongke2021/PC/Gau-7227.chk"
 B after Tr=    -0.000000    0.000000    0.000000
         Rot=    0.999956   -0.008935    0.002977   -0.000122 Ang=  -1.08 deg.
 Initial guess <Sx>= 0.0000 <Sy>= 0.0000 <Sz>= 0.5000 <S**2>= 0.7646 S= 0.5073
 ExpMin= 4.38D-02 ExpMax= 5.48D+03 ExpMxC= 8.25D+02 IAcc=2 IRadAn=         4 AccDes= 0.00D+00
 Harris functional with IExCor= 1009 and IRadAn=       4 diagonalized for initial guess.
 HarFok:  IExCor= 1009 AccDes= 0.00D+00 IRadAn=         4 IDoV= 1 UseB2=F ITyADJ=14
 ICtDFT=  3500011 ScaDFX=  1.000000  1.000000  1.000000  1.000000
 FoFCou: FMM=F IPFlag=           0 FMFlag=      100000 FMFlg1=           0
         NFxFlg=           0 DoJE=T BraDBF=F KetDBF=T FulRan=T
         wScrn=  0.000000 ICntrl=       500 IOpCl=  0 I1Cent=   200000004 NGrid=           0
         NMat0=    1 NMatS0=      1 NMatT0=    0 NMatD0=    1 NMtDS0=    0 NMtDT0=    0
 Petite list used in FoFCou.
 Requested convergence on RMS density matrix=1.00D-08 within 128 cycles.
 Requested convergence on MAX density matrix=1.00D-06.
 Requested convergence on             energy=1.00D-06.
 No special actions if energy rises.
 Inv3:  Mode=1 IEnd=     5298723.
 Iteration    1 A*A^-1 deviation from unit magnitude is 2.89D-15 for    962.
 Iteration    1 A*A^-1 deviation from orthogonality  is 2.40D-15 for    867    479.
 Iteration    1 A^-1*A deviation from unit magnitude is 2.89D-15 for    637.
 Iteration    1 A^-1*A deviation from orthogonality  is 8.19D-15 for    861    851.
 Error on total polarization charges =  0.06146
 SCF Done:  E(UM062X) =  -583.581174431     A.U. after   16 cycles
            NFock= 16  Conv=0.89D-08     -V/T= 2.0082
 <Sx>= 0.0000 <Sy>= 0.0000 <Sz>= 0.5000 <S**2>= 0.7648 S= 0.5074
 <L.S>=  0.00000000000    
 SMD-CDS (non-electrostatic) energy       (kcal/mol) =       5.00
 (included in total energy above)
 Annihilation of the first spin contaminant:
 S**2 before annihilation     0.7648,   after     0.7501
 D1PCM: PCM CHGder 1st derivatives, ID1Alg=3 FixD1E=F DoIter=F DoCFld=F I1PDM=0.
 Calling FoFJK, ICntrl=      2127 FMM=F ISym2X=0 I1Cent= 0 IOpClX= 1 NMat=1 NMatS=1 NMatT=0.
 ***** Axes restored to original set *****
 -------------------------------------------------------------------
 Center     Atomic                   Forces (Hartrees/Bohr)
 Number     Number              X              Y              Z
 -------------------------------------------------------------------
      1        7           0.004619997    0.000636841    0.003520012
      2        7          -0.004811941    0.009654355    0.005928859
      3        6           0.000665883    0.000961231   -0.001297130
      4        6           0.001464633   -0.000123473   -0.001975371
      5        7          -0.004352669    0.001960200    0.002144811
      6        1           0.000932385   -0.000841331   -0.000344538
      7        1          -0.000238016    0.000280540   -0.000232300
      8        1          -0.005928029    0.003958679   -0.023676633
      9        6           0.009420628   -0.021273193   -0.002137624
     10        8           0.002378728    0.009939773   -0.001004433
     11        8          -0.004810829   -0.012932164    0.000765393
     12        1          -0.001522942   -0.029329705   -0.026145499
     13        8          -0.001031928   -0.010158625    0.013588240
     14        1           0.008599245    0.003755069   -0.000105792
     15        1           0.000965713    0.020304150    0.001572140
     16        8          -0.005272497    0.025470143    0.029088942
     17        1          -0.001078362   -0.002262491    0.000310925
 -------------------------------------------------------------------
 Cartesian Forces:  Max     0.029329705 RMS     0.010427690

 GradGradGradGradGradGradGradGradGradGradGradGradGradGradGradGradGradGrad
 Berny optimization.
 Using GEDIIS/GDIIS optimizer.
 FormGI is forming the generalized inverse of G from B-inverse, IUseBI=4.
 Internal  Forces:  Max     0.040992688 RMS     0.006087916
 Search for a local minimum.
 Step number   2 out of a maximum of   89
 All quantities printed in internal units (Hartrees-Bohrs-Radians)
 Mixed Optimization -- RFO/linear search
 Update second derivatives using D2CorX and points    1    2
 DE= -3.11D-02 DEPred=-3.28D-02 R= 9.49D-01
 TightC=F SS=  1.41D+00  RLast= 3.34D-01 DXNew= 5.0454D-01 1.0010D+00
 Trust test= 9.49D-01 RLast= 3.34D-01 DXMaxT set to 5.05D-01
 ITU=  1  0
 Use linear search instead of GDIIS.
     Eigenvalues ---    0.00248   0.00358   0.00772   0.01303   0.01704
     Eigenvalues ---    0.01868   0.02138   0.02161   0.02204   0.02427
     Eigenvalues ---    0.02430   0.02663   0.03412   0.05593   0.06297
     Eigenvalues ---    0.07546   0.09042   0.10039   0.10629   0.11399
     Eigenvalues ---    0.12784   0.13929   0.15987   0.16003   0.16186
     Eigenvalues ---    0.20977   0.21505   0.22668   0.23758   0.24872
     Eigenvalues ---    0.32484   0.35780   0.36129   0.36541   0.39065
     Eigenvalues ---    0.43815   0.44945   0.47567   0.50857   0.54592
     Eigenvalues ---    0.54781   0.55063   0.62862   0.84587   0.92815
 RFO step:  Lambda=-2.31068777D-02 EMin= 2.47741828D-03
 Quartic linear search produced a step of  0.69632.
 Iteration  1 RMS(Cart)=  0.07399352 RMS(Int)=  0.03080542
 Iteration  2 RMS(Cart)=  0.04667221 RMS(Int)=  0.00501211
 Iteration  3 RMS(Cart)=  0.00364338 RMS(Int)=  0.00449602
 Iteration  4 RMS(Cart)=  0.00001521 RMS(Int)=  0.00449601
 Iteration  5 RMS(Cart)=  0.00000016 RMS(Int)=  0.00449601
 Variable       Old X    -DE/DX   Delta X   Delta X   Delta X     New X
                                 (Linear)    (Quad)   (Total)
    R1        2.65967  -0.00064  -0.00300  -0.00503  -0.00614   2.65353
    R2        2.57173  -0.00347  -0.00486  -0.00485  -0.01090   2.56083
    R3        2.74184   0.00639   0.01338   0.04443   0.05811   2.79996
    R4        2.64245   0.00141   0.00917  -0.00625   0.00360   2.64605
    R5        2.61398  -0.01128  -0.01661  -0.02697  -0.04311   2.57086
    R6        2.59013  -0.00020  -0.00598   0.00625   0.00147   2.59160
    R7        2.03387   0.00007   0.00100  -0.00065   0.00035   2.03422
    R8        2.54501   0.00139   0.00580  -0.00031   0.00554   2.55055
    R9        2.04410  -0.00037  -0.00011  -0.00146  -0.00157   2.04253
   R10        2.05117  -0.01017  -0.01907  -0.03416  -0.05048   2.00069
   R11        2.33485   0.00935   0.01240   0.00240   0.01480   2.34964
   R12        2.49630   0.00788   0.01445   0.00226   0.01423   2.51053
   R13        1.97006  -0.00959  -0.02140  -0.01279  -0.03672   1.93334
   R14        3.07637   0.00388   0.08297   0.05180   0.13604   3.21241
   R15        1.80588   0.04099   0.12841  -0.05670   0.07213   1.87802
   R16        1.81841   0.00122   0.00048   0.00292   0.00340   1.82182
   R17        2.85138   0.00626   0.02423   0.06473   0.08611   2.93749
   R18        1.82541   0.00112   0.00359  -0.00051   0.00309   1.82850
    A1        1.86665   0.00065  -0.01484   0.00664  -0.00506   1.86159
    A2        2.10781   0.00115  -0.00121  -0.03967  -0.03717   2.07064
[...]
   zy         0.106091D+02      0.157210D+01      0.174920D+01
   zz         0.177460D+03      0.262968D+02      0.292592D+02

 ----------------------------------------------------------------------
 1\1\GINC-NODE4\Freq\UM062X\6-31+G(d,p)\C3H7N3O4(1-,2)\GONGKE2021\11-Ju
 l-2023\0\\#N Geom=AllCheck Guess=TCheck SCRF=Check GenChk UM062X/6-31+
 G(d,p) Freq\\test\\-1,2\N,0.1645078469,-0.8298250968,0.2816500429\N,0.
 9227506662,0.3131465066,0.0072221034\C,2.2759565938,-0.0244074955,-0.0
 460692852\C,2.2879539657,-1.3751958883,0.209166028\N,1.041331478,-1.85
 06865658,0.4011338964\H,3.0451794556,0.7047338003,-0.2357170833\H,3.14
 80542061,-2.027975354,0.2636448821\H,-1.1981586042,-1.3037461257,-0.74
 56657294\C,0.3849769907,1.5439135854,-0.1237779531\O,1.0623243131,2.55
 03675798,-0.4088419126\O,-0.9483483415,1.6523529357,0.049067561\H,-2.8
 425456833,-0.6840856166,0.2323678862\O,-2.0410593769,-1.6064602056,-1.
 1772724518\H,-2.1205906064,-1.0862680281,-1.9875088034\H,-1.3909331083
 ,0.8526077996,0.4198831802\O,-2.9339652,-0.0128825941,0.9377226445\H,-
 2.7964470358,-0.4897875768,1.7665591341\\Version=ES64L-G16RevA.03\Stat
 e=2-A\HF=-583.5941678\S2=0.765841\S2-1=0.\S2A=0.750117\RMSD=1.962e-09\
 RMSF=1.228e-05\ZeroPoint=0.1198653\Thermal=0.1320878\Dipole=0.042747,-
 1.1814171,0.0498151\DipoleDeriv=-0.8368538,-1.2454827,0.103136,0.34430
 3,0.159316,-0.1997062,-0.2570736,-0.1500099,-0.475761,-0.2843407,0.345
 4703,-0.0320532,0.1927915,-0.7979437,0.1516595,-0.0279379,0.0768252,-0
 .0049826,-0.3795443,0.3293401,-0.0532609,-0.384243,-0.5624806,0.039267
 9,0.0886319,0.0170384,-0.4486489,0.3485178,0.4075727,-0.1180244,0.2320
 851,0.9446447,-0.2052328,-0.0907666,-0.232513,-0.034749,-0.3506841,0.1
 632713,-0.0380497,-0.3689696,-1.5592364,0.2202364,0.0479814,0.2011717,
 -0.4161902,0.1045791,0.0154209,0.0146053,-0.0105126,0.1105728,0.044244
 6,0.0156372,0.0341254,0.3378,0.032179,0.0959494,-0.0037678,0.1025438,0
 .0893498,0.0158544,-0.0004887,0.0201293,0.2142853,1.2065399,0.4227918,
 0.3371234,0.2603333,0.5279516,0.1488501,0.5468165,0.334396,0.6131579,2
 .5672876,0.2641456,-0.3622884,-0.2781441,4.0456395,-0.5448622,-0.24295
 1,-0.6512337,0.7218468,-0.930104,-1.3679964,0.2728778,0.0378347,-3.079
 8453,0.4031374,0.045138,0.6214733,-0.8162746,-2.2079982,0.7156608,0.15
 85867,-0.2296063,-0.8047513,0.0610053,0.2881133,-0.0223422,-0.6403358,
 0.5280924,-0.0362304,-0.1212123,-0.062224,0.4674863,0.195307,-0.133958
 ,0.2050754,0.7222912,-1.3767331,-0.1394723,-0.1487233,-0.0691222,-0.93
 17243,-0.2542609,-0.2551325,-0.3669347,-1.0720208,0.400834,-0.0575283,
 0.0334447,-0.0365562,0.3593875,0.0766976,0.0071235,0.0631234,0.3796353
 ,0.9053831,0.1813488,-0.1635549,0.3505153,0.4743433,-0.0701377,-0.1862
 687,-0.0662484,0.5128886,-1.1712225,-0.126344,0.1470221,-0.1105868,-0.
 7853646,-0.1379776,0.1807592,-0.1064272,-0.9920214,0.4440679,0.0320823
 ,-0.025861,0.0295581,0.3426546,0.0559173,-0.0256242,0.022351,0.3990792
 \Polar=137.5454596,-5.3248647,176.0796173,-2.6779854,-14.4416552,85.94
 70985\Quadrupole=4.3285511,-17.2430514,12.9145003,-2.642781,0.0439859,
 0.9231269\PG=C01 [X(C3H7N3O4)]\NImag=0\\0.48205545,-0.06361468,0.36786
 689,-0.00687749,-0.04699521,0.07869834,-0.16671084,-0.07872185,0.02265
 625,0.67747281,-0.00367580,-0.11370971,0.01364308,-0.15801438,0.760556
 08,0.00960067,0.02063513,-0.04333026,-0.03024993,-0.09942447,0.1044441
 0,-0.04217029,-0.03266173,0.00919353,-0.25920387,0.02247382,0.01583629
 ,0.64221053,-0.02300179,-0.00156983,0.00032868,0.03222953,-0.11279737,
 0.00965505,0.15394782,0.76281152,0.00779730,0.00265386,-0.00214993,0.0
 1206231,0.01164907,-0.04048585,-0.07443140,-0.13689065,0.10458719,-0.0
 8279165,0.03830857,0.00060574,-0.01808741,0.02078596,-0.00176657,-0.10
 489779,0.03769567,-0.00412856,0.75622974,0.04244664,-0.02242526,0.0056
 9659,0.07314619,-0.04832691,0.00458501,0.00330421,-0.35887053,0.055786
 78,-0.17268719,0.70762201,0.00013340,0.00462429,0.01473202,-0.01077384
 ,0.00865325,0.00797047,0.00242952,0.05459398,-0.06449787,-0.01808430,-
 0.09479639,0.14753676,-0.19333661,0.14883544,-0.02057649,-0.00808163,0
 .03061795,-0.00372165,-0.01692069,-0.08986927,0.02117015,-0.30345291,-
 0.08642273,0.03565284,0.53949132,0.03736642,-0.18113992,0.01940238,0.0
 0804792,-0.09958844,0.01781743,-0.02564113,-0.07259825,0.02157976,-0.0
 5489904,-0.10051701,0.01055002,0.01311741,0.44300780,0.00223208,0.0105
 3648,-0.05220474,-0.00045220,0.01785048,0.00115698,0.00850480,0.026486
 49,0.02217421,0.02992910,0.01291765,-0.06815463,-0.03683465,-0.0685152
 7,0.09601631,-0.00283416,0.00146959,0.00006281,-0.01590416,-0.02022839
 ,0.00446753,-0.21593793,-0.15203607,0.04282632,0.00946091,0.00218552,-
 0.00119998,0.00122767,0.00496527,-0.00064205,0.22363878,0.00392302,-0.
 00193207,0.00079252,0.01114379,0.01187988,-0.00394494,-0.16234347,-0.2
 0579448,0.04765944,-0.01814341,-0.00207623,0.00124123,-0.00147188,-0.0
 0364462,0.00190342,0.16598884,0.20275484,-0.00009964,0.00092900,0.0036
 0903,-0.00123024,-0.00140723,-0.00491108,0.04467122,0.04593116,-0.0227
 8945,0.00298444,0.00053795,-0.00232049,0.00022866,0.00129181,0.0055173
 6,-0.04588796,-0.04722230,0.02329455,-0.00367522,-0.00193962,0.0010285
 7,-0.00017259,-0.00365228,0.00122410,0.00716497,-0.00273248,0.00002399
 ,-0.24430282,0.14507817,-0.01040262,-0.01821989,0.02014085,-0.00271305
 ,-0.00044714,0.00045897,-0.00021928,0.25898221,-0.00429832,0.00040206,
 0.00184586,0.00030943,-0.00574105,0.00216155,0.02093438,-0.00336822,-0
 .00081893,0.15092652,-0.17789480,0.01530470,-0.01068322,0.01407959,-0.
 00284144,-0.00058909,0.00007252,-0.00038396,-0.15778891,0.17187225,0.0
 0193577,0.00175156,0.00787535,0.00036377,0.00236452,0.00574542,-0.0042
 9507,0.00102252,0.00137935,-0.01173252,0.01564213,-0.03590842,0.003125
 26,-0.00505730,-0.00473926,-0.00003111,-0.00042811,-0.00209702,0.01098
 926,-0.01519607,0.02710752,0.01227767,0.00687140,0.01279558,-0.0009697
 8,-0.00352991,0.00419627,0.00191963,0.00216871,-0.00067074,0.00179966,
 -0.00145605,-0.00104079,-0.00552105,0.00727752,-0.00058125,0.00018761,
 -0.00023484,-0.00014050,0.00029771,-0.00009781,-0.00027644,0.27785477,
 0.00557987,-0.00540120,0.00671431,-0.00249761,-0.00212940,-0.00037924,
 0.00070910,0.00049683,-0.00018154,0.00146225,-0.00164315,-0.00026619,0
 .00304456,0.00321954,0.00212847,0.00004022,-0.00005594,0.00001970,0.00
 026258,0.00000283,-0.00031165,0.08560471,0.06639213,0.00502043,0.00610
 997,0.00049010,0.00435767,-0.00166707,0.00390554,0.00124986,0.00240563
 ,-0.00082564,0.00168785,-0.00150464,-0.00043184,-0.00043391,0.00448523
 ,0.00043619,0.00039445,-0.00023898,-0.00003754,0.00036835,-0.00002955,
 -0.00021859,0.12075964,0.02238300,0.10679100,0.02577852,0.00001059,-0.
 00257433,-0.17172298,0.09449022,-0.00228439,-0.01580184,0.03847116,-0.
 00320446,-0.01055529,-0.00449648,0.00191874,0.00039150,-0.00996216,0.0
 0178389,-0.00016708,-0.00108911,-0.00000878,0.00030089,0.00066535,-0.0
 0017567,0.00131816,-0.00046777,0.00051592,0.65684885,0.02891582,-0.043
 23341,0.00814270,0.08985054,-0.31345799,0.03602283,0.01368831,-0.00497
 054,-0.00119003,-0.00545221,0.00038217,0.00023090,-0.01813052,0.023100
 53,-0.00346136,-0.00297450,0.00020821,0.00022162,-0.00036251,0.0017200
 9,-0.00011852,-0.01062644,-0.00394154,-0.00703393,0.06718126,0.8167031
 9,-0.00952045,0.00616291,0.00060069,-0.00047508,0.03440466,-0.05376377
 ,0.00028598,-0.00178132,0.00140890,0.00147865,0.00037785,0.00008303,0.
 00356298,-0.00305875,-0.00189522,0.00050684,0.00002996,-0.00049355,0.0
 0014109,-0.00008343,0.00115878,0.00147344,0.00038918,0.00139600,-0.086
 39273,-0.13688712,0.18655093,-0.02413836,-0.00456164,0.00177802,0.0139
 3563,0.01249079,-0.00322447,0.01307071,-0.00389830,-0.00101195,0.00240
 736,0.00488344,-0.00109858,0.00781616,-0.01131520,0.00209037,0.0014608
 2,0.00110764,-0.00032495,0.00048993,-0.00004591,-0.00001336,0.00447843
 ,0.00171676,0.00269303,-0.21326070,-0.18326493,0.05706548,0.25905143,-
 0.02030569,-0.00101657,-0.00013538,-0.03065031,-0.06618248,0.01709396,
 0.01190584,0.00160496,-0.00207338,-0.00109059,0.00326357,-0.00029586,0
 .01167057,-0.02290808,0.00389839,0.00080020,-0.00148681,0.00016429,0.0
 0072589,-0.00053562,0.00004602,0.00814019,0.00275521,0.00513873,-0.189
 09916,-0.37554230,0.08658807,0.23792629,0.45726897,0.00800651,0.001693
 51,0.00229154,0.00578765,0.01069655,0.01212904,-0.00465512,-0.00084392
 ,-0.00341595,-0.00007475,-0.00133000,-0.00033164,-0.00298681,0.0059284
 4,0.00169344,-0.00025572,0.00020883,0.00042617,-0.00019295,0.00010941,
 -0.00000943,-0.00217511,-0.00064608,-0.00155890,0.05668455,0.08656834,
 -0.08150291,-0.07850584,-0.11282399,0.06042042,0.02227772,-0.00488998,
 -0.00073242,-0.04982497,0.00693307,0.00834260,-0.00763941,0.00915549,-
 0.00045749,-0.00529336,-0.00652797,0.00173719,-0.00625339,0.01554699,-
 0.00237568,-0.00059831,0.00053315,-0.00007545,-0.00027864,0.00068352,-
 0.00023378,-0.00571006,-0.00163926,-0.00299558,-0.24999077,0.04768331,
 0.01935038,-0.05838295,-0.02610601,0.01573777,0.47417513,0.00562210,0.
 00002626,-0.00060908,0.05001313,-0.01219086,-0.00270991,-0.00664109,-0
 .00308568,0.00175367,0.00362529,-0.00172014,0.00019516,0.00017204,0.00
 209928,-0.00115550,0.00038417,0.00008396,-0.00006213,0.00000281,-0.000
 47495,0.00005853,0.00057743,0.00075017,0.00088305,0.01113299,-0.113334
 61,0.01892609,-0.05921769,0.00267528,0.00920517,0.11254258,0.44456764,
 -0.00322043,0.00016693,-0.00351344,0.00115422,0.00122694,0.00856792,0.
 00142123,0.00013417,0.00491508,0.00043620,0.00110744,0.00110308,0.0006
 6073,-0.00178940,0.00098820,-0.00001048,-0.00015948,-0.00027109,-0.000
 01695,-0.00016827,-0.00055062,0.00085021,0.00042555,0.00023274,0.02995
 976,0.01331965,-0.04588179,0.02470013,0.00615769,0.00447429,-0.1182681
 2,-0.16108399,0.09978793,0.00044615,0.00012113,0.00042334,0.00022922,-
 0.00027408,0.00007616,0.00017643,0.00019568,-0.00007324,0.00023461,-0.
 00020608,0.00001292,0.00017637,0.00047108,-0.00019379,0.00003671,-0.00
 002047,-0.00000710,0.00005974,0.00000477,-0.00001568,-0.00780885,0.002
 59573,0.00363111,-0.00068305,-0.00065881,0.00024309,0.00050138,0.00061
 719,-0.00021094,0.00022533,0.00052620,0.00035411,0.02097355,-0.0006165
 0,-0.00053075,-0.00063258,0.00008148,0.00003852,-0.00009716,0.00001548
 ,-0.00008063,0.00001803,0.00004130,0.00000490,0.00003787,0.00024063,-0
 .00017863,-0.00007639,0.00000162,0.00000214,0.00001063,0.00001060,0.00
 000422,0.00001246,0.00370510,0.00066958,0.00033309,-0.00122769,0.00049
 511,0.00015464,0.00034499,-0.00001135,-0.00007329,0.00176920,0.0009927
 9,-0.00040302,-0.02662428,0.24421003,-0.00083290,-0.00060383,-0.001111
 49,0.00012840,0.00011787,-0.00015739,-0.00003562,-0.00010086,0.0000265
 4,-0.00001828,0.00004306,0.00005111,0.00022544,-0.00030430,-0.00013074
 ,-0.00000289,0.00000746,0.00002150,-0.00000197,0.00000617,0.00002815,0
 .00674261,-0.00071010,0.00106616,-0.00089609,0.00060156,0.00002025,0.0
 0019947,-0.00015359,-0.00001221,0.00199303,0.00108115,-0.00100374,-0.0
 2074591,0.20643696,0.27363634,-0.02294772,-0.00875257,-0.01887680,0.00
 002252,0.00219223,-0.00304803,-0.00121832,-0.00140418,0.00022083,-0.00
 145975,0.00110938,0.00075002,0.00197764,-0.00453945,-0.00048574,-0.000
 15768,0.00015758,0.00006448,-0.00026150,0.00005922,0.00028283,-0.28212
 161,-0.11767614,-0.10778238,-0.00103823,0.00697758,-0.00035868,-0.0027
 7154,-0.00519720,0.00126226,0.00397182,-0.00047502,-0.00089677,-0.0012
 9698,-0.00265172,-0.00803128,0.34205772,-0.00784498,0.00213433,-0.0068
 5648,0.00074469,0.00073266,-0.00029736,-0.00038831,-0.00034619,0.00004
 112,-0.00063638,0.00081541,0.00018208,-0.00114437,-0.00151481,-0.00085
 530,-0.00002000,0.00002691,-0.00002936,-0.00011669,-0.00000790,0.00015
 573,-0.09465423,-0.06540220,-0.01823354,0.00043224,0.00208399,0.000146
 56,-0.00103572,-0.00158934,0.00030906,0.00049959,-0.00074909,-0.000325
 83,-0.00205913,-0.00254694,0.00634416,0.10653461,0.23379865,-0.0147883
 7,-0.00686849,-0.00740354,-0.00192574,0.00104305,-0.00230793,-0.000754
 76,-0.00122422,0.00035578,-0.00093874,0.00084535,0.00026121,0.00025740
 ,-0.00253539,-0.00034227,-0.00019567,0.00013483,0.00004122,-0.00020391
 ,0.00002653,0.00016033,-0.14157610,-0.04083150,-0.09510223,-0.00010207
 ,0.00395797,-0.00070172,-0.00172877,-0.00305044,0.00089916,0.00117909,
 -0.00085841,0.00003189,-0.00541932,0.00583262,0.00771541,0.18335271,-0
 .19468377,0.48365417,-0.00113548,-0.00143935,0.00002389,-0.00049941,0.
 00000475,-0.00035280,-0.00006639,-0.00014147,0.00006400,-0.00002505,-0
 .00000006,-0.00001153,0.00020139,-0.00015590,-0.00000510,-0.00003226,0
 .00001628,0.00001306,-0.00001218,0.00000597,0.00000182,-0.00063610,0.0
 2136927,-0.02963575,-0.00005453,0.00022906,-0.00017243,-0.00007557,-0.
 00017824,0.00008610,0.00011861,0.00002828,0.00002893,0.00068057,-0.001
 89251,-0.00017280,-0.03330518,-0.00407519,-0.02332729,0.03525387,-0.00
 097424,-0.00069643,-0.00044363,-0.00022024,0.00010334,-0.00007274,-0.0
 0006906,-0.00009138,0.00005265,-0.00004952,0.00002837,0.00001683,0.000
 17586,-0.00020848,0.00003683,-0.00001992,0.00001289,0.00001196,-0.0000
 1109,0.00000367,0.00000535,-0.00246381,0.00576121,-0.01119683,-0.00010
 005,0.00028119,-0.00009754,-0.00008498,-0.00020639,0.00006822,0.000167
 74,-0.00000053,0.00010444,-0.00103487,0.00160723,0.00038105,0.01900598
 ,-0.16483113,0.24807690,-0.01487312,0.15937333,-0.00022912,-0.00050264
 ,0.00049076,-0.00023233,-0.00005807,-0.00012109,0.00005149,-0.00000692
 ,-0.00002198,0.00000162,-0.00003644,0.00000999,0.00007477,0.00009979,0
 .00000729,-0.00000817,0.00000161,-0.00001218,0.00000321,-0.00000212,-0
 .00000414,0.00296668,0.01237804,-0.01469455,-0.00015135,-0.00011500,-0
 .00000321,0.00009111,0.00009360,-0.00001619,0.00004166,0.00010423,0.00
 005645,0.00021442,0.00037956,-0.00234448,-0.05578166,0.22394970,-0.373
 62943,0.05288823,-0.23605766,0.38981943,-0.00143992,-0.00066215,0.0000
 8686,0.00060132,-0.00074222,0.00087509,-0.00008826,-0.00084818,-0.0002
 4854,0.00123595,-0.00055580,0.00002996,0.00144093,-0.00047937,-0.00073
 910,0.00013433,-0.00006443,0.00004280,0.00019669,-0.00008837,0.0001035
 0,0.00221066,0.00065999,0.00120584,-0.02946888,-0.03048053,0.01314842,
 -0.00100923,0.00223814,0.00063147,-0.09855631,-0.10781051,0.05577356,-
 0.00268694,-0.00465897,-0.00345205,-0.00156566,0.00057946,0.00072451,-
 0.00010691,0.00002602,-0.00004651,0.11849433,-0.00137678,0.00133582,-0
 .00096061,0.00500059,0.00103165,-0.00110267,0.00090926,-0.00166555,0.0
 0000760,0.00014342,0.00154697,-0.00031104,0.00011106,-0.00397541,0.001
 32548,0.00003171,-0.00005973,-0.00000497,-0.00008533,-0.00016121,0.000
 05551,0.00108784,-0.00134550,-0.00141714,-0.01124007,0.01246396,-0.005
 52319,0.00701325,0.00218363,0.00059872,-0.14140186,-0.31457625,0.13626
 542,-0.00496949,-0.00519370,-0.00241357,-0.00062430,0.00081292,0.00121
 823,-0.00002012,0.00010575,-0.00011584,0.13445997,0.30682680,0.0006108
 2,-0.00047196,0.00045138,-0.00146734,0.00101584,0.00114951,0.00041501,
 0.00033956,-0.00067169,-0.00048654,0.00012225,-0.00005545,-0.00047553,
 0.00015358,-0.00064885,-0.00003503,0.00002835,0.00004001,-0.00004539,0
 .00008209,0.00008793,-0.00044725,-0.00115726,-0.00060023,0.00730220,-0
 .00160961,-0.00733677,-0.00393217,-0.00108083,0.00483323,0.06944426,0.
 13113913,-0.06880195,-0.00151476,-0.00047715,0.00203418,0.00057544,0.0
 0024244,-0.00014603,0.00001249,-0.00007011,-0.00012046,-0.06422030,-0.
 12567145,0.07430167,-0.00210896,0.00174145,0.00134562,-0.00104392,0.00
 017092,-0.00000500,-0.00060182,0.00001346,0.00009003,-0.00051987,0.000
 23719,-0.00007523,-0.00093306,-0.00007140,0.00055743,-0.00007165,0.000
 03715,-0.00001501,-0.00012988,-0.00000217,-0.00003406,0.00033057,-0.00
 076295,-0.00117313,0.00773159,-0.00212032,-0.00035350,-0.00339937,-0.0
 0143699,0.00084918,-0.01646443,-0.00965160,0.00692941,-0.01121726,0.03
 269787,0.02117410,0.00031489,0.00259218,0.00508132,-0.00031147,0.00057
 644,0.00016889,0.00872552,0.01095567,-0.00731292,0.03421688,0.00176090
 ,0.00000206,0.00005397,-0.00040266,-0.00022855,0.00004069,-0.00017246,
 0.00031758,-0.00004355,-0.00004477,-0.00018080,0.00003551,-0.00027227,
 0.00073463,-0.00016804,0.00000045,0.00000929,-0.00001001,0.00000427,0.
 00002468,-0.00000277,-0.00209459,-0.00018199,-0.00037191,0.00520997,-0
 .00278665,0.00024412,-0.00197341,-0.00025704,0.00032057,-0.01424341,-0
 .00508207,0.00501105,0.03572646,-0.25241245,-0.18307126,0.00416239,-0.
 00201274,-0.00996820,0.00118500,-0.00130546,-0.00023908,0.00781227,0.0
 0148282,-0.00365360,-0.07697630,0.42555433,0.00047756,0.00001368,0.000
 29719,0.00038510,-0.00013316,-0.00000823,0.00018104,-0.00002786,0.0000
 0542,0.00016078,-0.00002643,-0.00004013,0.00014713,-0.00000570,0.00007
 316,0.00002036,-0.00002029,-0.00001717,0.00003159,-0.00001216,-0.00001
 343,-0.00295403,0.00016728,-0.00052973,-0.00285026,0.00134760,0.000418
 07,0.00145862,0.00057687,-0.00037611,0.00838230,0.00404444,-0.00064020
 ,0.02894733,-0.23238763,-0.25426843,0.00833559,-0.00947585,-0.01359092
 ,0.00064718,-0.00088635,0.00051409,-0.00588464,-0.00382048,-0.00326700
 ,0.02997680,0.00747708,0.66756340,0.00045372,-0.00011460,-0.00036270,-
 0.00003993,-0.00004263,0.00003412,0.00000434,0.00005423,-0.00002853,0.
 00001767,-0.00003841,0.00002228,-0.00000375,0.00013017,-0.00007505,0.0
 0000352,0.00000118,0.00000424,0.00000771,0.00000465,0.00000547,0.00009
 260,-0.00000132,0.00013659,0.00037383,-0.00045512,0.00001652,-0.000174
 12,0.00003987,0.00001175,-0.00177600,-0.00083110,0.00014425,-0.0000469
 8,-0.00123660,0.00372675,-0.00020041,0.00059223,0.00036572,0.00000608,
 -0.00005114,-0.00005293,0.00188238,0.00000517,0.00157700,-0.01451775,0
 .04031815,-0.06746243,0.01391711,0.00009400,-0.00011228,0.00001287,-0.
 00006023,0.00001063,0.00001685,0.00002904,0.00000776,-0.00000390,0.000
 01411,-0.00000856,0.00000365,0.00000874,0.00003228,-0.00001040,0.00000
 037,-0.00000073,0.00000187,0.00000477,0.00000184,0.00000010,-0.0002752
 3,0.00005341,-0.00004511,0.00008870,-0.00017140,0.00000732,-0.00008538
 ,-0.00001564,0.00001046,-0.00070614,0.00001880,0.00001069,-0.00441103,
 0.01292994,-0.02766192,0.00112161,-0.00140452,-0.00111508,-0.00006265,
 0.00006283,0.00012723,0.00061468,-0.00081298,0.00106874,0.04199938,-0.
 16367764,0.23316896,-0.03837474,0.15308627,-0.00024614,0.00016481,0.00
 017699,-0.00008866,0.00002469,0.00001661,-0.00006798,-0.00002148,0.000
 00590,-0.00005413,0.00003183,-0.00000721,-0.00007633,-0.00004231,0.000
 05256,-0.00000927,0.00000645,-0.00000028,-0.00001405,-0.00000036,-0.00
 000192,0.00007779,-0.00012199,-0.00031849,0.00047508,0.00000239,-0.000
 05773,-0.00023614,-0.00014416,0.00005604,-0.00106976,-0.00091159,0.000
 50526,-0.00572174,0.02093138,-0.02557119,0.00041717,-0.00061336,0.0001
 0489,-0.00008799,0.00007064,0.00006969,0.00196912,0.00187000,-0.001249
 48,-0.05720393,0.18434541,-0.39611999,0.06193695,-0.20559236,0.4223383
 5\\0.00000599,-0.00000453,0.00002050,-0.00000791,0.00000423,-0.0000167
 1,0.00000156,0.00000156,0.00003152,-0.00000685,-0.00000794,-0.00000456
 ,-0.00000307,-0.00002054,0.00000241,0.00000170,-0.00001126,-0.00000803
 ,-0.00000340,-0.00000529,0.00001232,-0.00000898,0.00000307,-0.00001956
 ,0.00000333,0.00001634,0.00000032,0.00000105,-0.00001037,0.00001198,0.
 00000740,0.00000150,-0.00001388,0.00000132,0.00001861,0.00002635,-0.00
 000610,0.00002484,0.00000544,0.00001690,-0.00000316,-0.00001570,-0.000
 00504,-0.00001114,0.00000283,0.00001383,0.00000135,-0.00002914,-0.0000
 1173,0.00000274,-0.00000609\\\@


 YE HAVE SOWN MUCH, AND BRING IN LITTLE.
 YE EAT, BUT YE HAVE NOT ENOUGH.
 YE DRINK, BUT YE ARE NOT FILLED WITH DRINK.
 YE CLOTHE YOU, BUT THERE IS NONE WARM.
 AND HE THAT EARNETH WAGES EARNETH WAGES TO PUT
 IT INTO A BAG WITH HOLES.
                                     HAGGAI I,6
 Job cpu time:       0 days  0 hours 54 minutes 24.3 seconds.
 Elapsed time:       0 days  0 hours  2 minutes 16.7 seconds.
 File lengths (MBytes):  RWF=    222 Int=      0 D2E=      0 Chk=     12 Scr=      1
 Normal termination of Gaussian 16 at Tue Jul 11 23:01:08 2023.
