 Entering Gaussian System, Link 0=/home/gau/soft/g16/g16
 Initial command:
 /home/gau/soft/g16/l1.exe "/home/gau/soft/scratch/Gau-115450.inp" -scrdir="/home/gau/soft/scratch/"
 Entering Link 1 = /home/gau/soft/g16/l1.exe PID=    115451.
  
 Copyright (c) 1988-2019, Gaussian, Inc.  All Rights Reserved.
  
 This is part of the Gaussian(R) 16 program.  It is based on
 the Gaussian(R) 09 system (copyright 2009, Gaussian, Inc.),
 the Gaussian(R) 03 system (copyright 2003, Gaussian, Inc.),
 the Gaussian(R) 98 system (copyright 1998, Gaussian, Inc.),
 the Gaussian(R) 94 system (copyright 1995, Gaussian, Inc.),
 the Gaussian 92(TM) system (copyright 1992, Gaussian, Inc.),
 the Gaussian 90(TM) system (copyright 1990, Gaussian, Inc.),
 the Gaussian 88(TM) system (copyright 1988, Gaussian, Inc.),
 the Gaussian 86(TM) system (copyright 1986, Carnegie Mellon
 University), and the Gaussian 82(TM) system (copyright 1983,
 Carnegie Mellon University). Gaussian is a federally registered
 trademark of Gaussian, Inc.
  
 This software contains proprietary and confidential information,
 including trade secrets, belonging to Gaussian, Inc.
  
 This software is provided under written license and may be
 used, copied, transmitted, or stored only in accord with that
 written license.
  
 The following legend is applicable only to US Government
 contracts under FAR:
  
                    RESTRICTED RIGHTS LEGEND
  
 Use, reproduction and disclosure by the US Government is
 subject to restrictions as set forth in subparagraphs (a)
 and (c) of the Commercial Computer Software - Restricted
 Rights clause in FAR 52.227-19.
  
 Gaussian, Inc.
 340 Quinnipiac St., Bldg. 40, Wallingford CT 06492
  
  
 ---------------------------------------------------------------
 Warning -- This program may not be used in any manner that
 competes with the business of Gaussian, Inc. or will provide
 assistance to any competitor of Gaussian, Inc.  The licensee
 of this program is prohibited from giving any competitor of
 Gaussian, Inc. access to this program.  By using this program,
 the user acknowledges that Gaussian, Inc. is engaged in the
 business of creating and licensing software in the field of
 computational chemistry and represents and warrants to the
 licensee that it is not a competitor of Gaussian, Inc. and that
 it will not use this program in any manner prohibited above.
 ---------------------------------------------------------------
  

 Cite this work as:
 Gaussian 16, Revision C.01,
 M. J. Frisch, G. W. Trucks, H. B. Schlegel, G. E. Scuseria, 
 M. A. Robb, J. R. Cheeseman, G. Scalmani, V. Barone, 
 G. A. Petersson, H. Nakatsuji, X. Li, M. Caricato, A. V. Marenich, 
 J. Bloino, B. G. Janesko, R. Gomperts, B. Mennucci, H. P. Hratchian, 
 J. V. Ortiz, A. F. Izmaylov, J. L. Sonnenberg, D. Williams-Young, 
 F. Ding, F. Lipparini, F. Egidi, J. Goings, B. Peng, A. Petrone, 
 T. Henderson, D. Ranasinghe, V. G. Zakrzewski, J. Gao, N. Rega, 
 G. Zheng, W. Liang, M. Hada, M. Ehara, K. Toyota, R. Fukuda, 
 J. Hasegawa, M. Ishida, T. Nakajima, Y. Honda, O. Kitao, H. Nakai, 
 T. Vreven, K. Throssell, J. A. Montgomery, Jr., J. E. Peralta, 
 F. Ogliaro, M. J. Bearpark, J. J. Heyd, E. N. Brothers, K. N. Kudin, 
 V. N. Staroverov, T. A. Keith, R. Kobayashi, J. Normand, 
 K. Raghavachari, A. P. Rendell, J. C. Burant, S. S. Iyengar, 
 J. Tomasi, M. Cossi, J. M. Millam, M. Klene, C. Adamo, R. Cammi, 
 J. W. Ochterski, R. L. Martin, K. Morokuma, O. Farkas, 
 J. B. Foresman, and D. J. Fox, Gaussian, Inc., Wallingford CT, 2019.
 
 ******************************************
 Gaussian 16:  ES64L-G16RevC.01  3-Jul-2019
                 7-Dec-2023 
 ******************************************
 %mem=10GB
 %nprocshared=48
 Will use up to   48 processors via shared memory.
 -----------------------------------------------------
 # opt freq 6-31+g(d,p) scrf=(smd,solvent=water) m062x
 -----------------------------------------------------
 1/18=20,19=15,26=3,38=1/1,3;
 2/9=110,12=2,17=6,18=5,40=1/2;
 3/5=1,6=6,7=111,11=2,25=1,30=1,70=32201,71=1,72=1,74=-55/1,2,3;
 4//1;
 5/5=2,38=5,53=1/2;
 6/7=2,8=2,9=2,10=2,28=1/1;
 7//1,2,3,16;
 1/18=20,19=15,26=3/3(2);
 2/9=110/2;
 99//99;
 2/9=110/2;
 3/5=1,6=6,7=111,11=2,25=1,30=1,70=32205,71=1,72=1,74=-55/1,2,3;
 4/5=5,16=3,69=1/1;
 5/5=2,38=5,53=1/2;
 7//1,2,3,16;
 1/18=20,19=15,26=3/3(-5);
 2/9=110/2;
 6/7=2,8=2,9=2,10=2,19=2,28=1/1;
 99/9=1/99;
 ----
 test
 ----
 Symbolic Z-matrix:
 Charge =  0 Multiplicity = 1
 N                     1.17176   0.71608   0.00295 
 N                     0.46831  -0.38691   0.15478 
 C                     1.37778  -1.36245   0.10242 
 C                     2.63339  -0.77294  -0.08463 
 N                     2.46985   0.55127  -0.14452 
 H                     1.09822  -2.401     0.19764 
 H                     3.60883  -1.22495  -0.17566 
 H                     0.70481   1.63042   0.00121 
 C                    -2.23769  -0.85413  -0.06282 
 O                    -2.03489  -1.98425   0.11796 
 O                    -2.49423   0.26613  -0.25053 
 H                    -1.35643   1.93807  -0.28139 
 O                    -0.61695   2.56027  -0.22161 
 H                    -0.98457   3.41619  -0.47883 
 
 Add virtual bond connecting atoms O13        and H8         Dist= 3.08D+00.
 Add virtual bond connecting atoms H12        and O11        Dist= 3.82D+00.

 GradGradGradGradGradGradGradGradGradGradGradGradGradGradGradGradGradGrad
 Berny optimization.
 Initialization pass.
                           ----------------------------
                           !    Initial Parameters    !
                           ! (Angstroms and Degrees)  !
 --------------------------                            --------------------------
 ! Name  Definition              Value          Derivative Info.                !
 --------------------------------------------------------------------------------
 ! R1    R(1,2)                  1.317          estimate D2E/DX2                !
 ! R2    R(1,5)                  1.3168         estimate D2E/DX2                !
 ! R3    R(1,8)                  1.0267         estimate D2E/DX2                !
 ! R4    R(2,3)                  1.3348         estimate D2E/DX2                !
 ! R5    R(3,4)                  1.3997         estimate D2E/DX2                !
 ! R6    R(3,6)                  1.0797         estimate D2E/DX2                !
 ! R7    R(4,5)                  1.3356         estimate D2E/DX2                !
 ! R8    R(4,7)                  1.0789         estimate D2E/DX2                !
 ! R9    R(8,13)                 1.6314         estimate D2E/DX2                !
 ! R10   R(9,10)                 1.1623         estimate D2E/DX2                !
 ! R11   R(9,11)                 1.1645         estimate D2E/DX2                !
 ! R12   R(11,12)                2.0226         estimate D2E/DX2                !
 ! R13   R(12,13)                0.9683         estimate D2E/DX2                !
 ! R14   R(13,14)                0.9664         estimate D2E/DX2                !
 ! A1    A(2,1,5)              115.762          estimate D2E/DX2                !
 ! A2    A(2,1,8)              120.2073         estimate D2E/DX2                !
 ! A3    A(5,1,8)              124.0303         estimate D2E/DX2                !
 ! A4    A(1,2,3)              104.102          estimate D2E/DX2                !
 ! A5    A(2,3,4)              107.9782         estimate D2E/DX2                !
 ! A6    A(2,3,6)              121.5421         estimate D2E/DX2                !
 ! A7    A(4,3,6)              130.4796         estimate D2E/DX2                !
 ! A8    A(3,4,5)              108.2843         estimate D2E/DX2                !
 ! A9    A(3,4,7)              130.2299         estimate D2E/DX2                !
 ! A10   A(5,4,7)              121.4858         estimate D2E/DX2                !
 ! A11   A(1,5,4)              103.8735         estimate D2E/DX2                !
 ! A12   A(1,8,13)             151.2056         estimate D2E/DX2                !
 ! A13   A(9,11,12)            132.3585         estimate D2E/DX2                !
 ! A14   A(11,12,13)           163.7123         estimate D2E/DX2                !
 ! A15   A(8,13,12)            105.1261         estimate D2E/DX2                !
 ! A16   A(8,13,14)            148.1457         estimate D2E/DX2                !
 ! A17   A(12,13,14)           105.2002         estimate D2E/DX2                !
 ! A18   L(10,9,11,1,-1)       182.704          estimate D2E/DX2                !
 ! A19   L(10,9,11,1,-2)       179.8144         estimate D2E/DX2                !
 ! D1    D(5,1,2,3)             -0.0395         estimate D2E/DX2                !
 ! D2    D(8,1,2,3)            179.7541         estimate D2E/DX2                !
 ! D3    D(2,1,5,4)              0.0063         estimate D2E/DX2                !
 ! D4    D(8,1,5,4)           -179.7786         estimate D2E/DX2                !
 ! D5    D(2,1,8,13)           -23.8978         estimate D2E/DX2                !
 ! D6    D(5,1,8,13)           155.878          estimate D2E/DX2                !
 ! D7    D(1,2,3,4)              0.0544         estimate D2E/DX2                !
 ! D8    D(1,2,3,6)           -179.9328         estimate D2E/DX2                !
 ! D9    D(2,3,4,5)             -0.0541         estimate D2E/DX2                !
 ! D10   D(2,3,4,7)            179.9759         estimate D2E/DX2                !
 ! D11   D(6,3,4,5)            179.9316         estimate D2E/DX2                !
 ! D12   D(6,3,4,7)             -0.0384         estimate D2E/DX2                !
 ! D13   D(3,4,5,1)              0.0289         estimate D2E/DX2                !
 ! D14   D(7,4,5,1)           -179.998          estimate D2E/DX2                !
 ! D15   D(1,8,13,12)           12.7542         estimate D2E/DX2                !
 ! D16   D(1,8,13,14)         -148.992          estimate D2E/DX2                !
 ! D17   D(9,11,12,13)          -4.0208         estimate D2E/DX2                !
 ! D18   D(11,12,13,8)           8.2563         estimate D2E/DX2                !
 ! D19   D(11,12,13,14)        178.3928         estimate D2E/DX2                !
 --------------------------------------------------------------------------------
 Trust Radius=3.00D-01 FncErr=1.00D-07 GrdErr=1.00D-06 EigMax=2.50D+02 EigMin=1.00D-04
 Number of steps in this run=     62 maximum allowed number of steps=    100.
 GradGradGradGradGradGradGradGradGradGradGradGradGradGradGradGradGradGrad

                          Input orientation:                          
 ---------------------------------------------------------------------
 Center     Atomic      Atomic             Coordinates (Angstroms)
 Number     Number       Type             X           Y           Z
 ---------------------------------------------------------------------
      1          7           0        1.171761    0.716080    0.002954
      2          7           0        0.468313   -0.386908    0.154778
      3          6           0        1.377784   -1.362454    0.102424
      4          6           0        2.633392   -0.772940   -0.084632
      5          7           0        2.469847    0.551272   -0.144519
      6          1           0        1.098221   -2.400999    0.197644
      7          1           0        3.608829   -1.224948   -0.175661
      8          1           0        0.704810    1.630421    0.001211
      9          6           0       -2.237692   -0.854130   -0.062816
     10          8           0       -2.034887   -1.984253    0.117961
     11          8           0       -2.494226    0.266129   -0.250529
     12          1           0       -1.356432    1.938068   -0.281393
     13          8           0       -0.616954    2.560268   -0.221613
     14          1           0       -0.984567    3.416192   -0.478833
 ---------------------------------------------------------------------
                    Distance matrix (angstroms):
                    1          2          3          4          5
     1  N    0.000000
     2  N    1.316994   0.000000
     3  C    2.091087   1.334754   0.000000
     4  C    2.088353   2.212217   1.399667   0.000000
     5  N    1.316791   2.230672   2.217190   1.335616   0.000000
     6  H    3.124019   2.110731   1.079721   2.255439   3.273276
     7  H    3.120704   3.267161   2.252510   1.078923   2.110262
     8  H    1.026677   2.036941   3.069273   3.082684   2.073923
     9  C    3.754232   2.754652   3.654773   4.871809   4.913528
    10  O    4.193759   2.969659   3.468890   4.827127   5.175945
    11  O    3.702185   3.060616   4.215367   5.234468   4.973386
    12  H    2.822387   2.987549   4.303103   4.827729   4.072143
    13  O    2.578946   3.163119   4.412678   4.657659   3.683796
    14  H    3.488907   4.120181   5.362277   5.549220   4.500279
                    6          7          8          9         10
     6  H    0.000000
     7  H    2.797428   0.000000
     8  H    4.055330   4.076486   0.000000
     9  C    3.686320   5.859356   3.851676   0.000000
    10  O    3.161707   5.702130   4.537118   1.162320   0.000000
    11  O    4.496677   6.283009   3.486904   1.164485   2.326155
    12  H    5.008223   5.888095   2.103147   2.936114   4.000548
    13  O    5.266096   5.673378   1.631357   3.782872   4.772684
    14  H    6.215733   6.536924   2.504679   4.469792   5.533908
                   11         12         13         14
    11  O    0.000000
    12  H    2.022599   0.000000
    13  O    2.964466   0.968263   0.000000
    14  H    3.500584   1.536918   0.966389   0.000000
 Stoichiometry    C3H5N3O3
 Framework group  C1[X(C3H5N3O3)]
 Deg. of freedom    36
 Full point group                 C1      NOp   1
 Largest Abelian subgroup         C1      NOp   1
 Largest concise Abelian subgroup C1      NOp   1
                         Standard orientation:                         
 ---------------------------------------------------------------------
 Center     Atomic      Atomic             Coordinates (Angstroms)
 Number     Number       Type             X           Y           Z
 ---------------------------------------------------------------------
      1          7           0       -1.183706    0.684963   -0.099592
      2          7           0       -0.435343   -0.396162   -0.174380
      3          6           0       -1.301549   -1.401727   -0.032622
      4          6           0       -2.579144   -0.852344    0.125481
      5          7           0       -2.471848    0.478139    0.078881
      6          1           0       -0.978798   -2.431934   -0.049995
      7          1           0       -3.533263   -1.336173    0.265631
      8          1           0       -0.756373    1.615321   -0.176304
      9          6           0        2.290415   -0.731050    0.040570
     10          8           0        2.134258   -1.879422   -0.048011
     11          8           0        2.500746    0.410294    0.136073
     12          1           0        1.292758    2.030348    0.051821
     13          8           0        0.526689    2.614378   -0.046060
     14          1           0        0.860077    3.502590    0.137895
 ---------------------------------------------------------------------
 Rotational constants (GHZ):           2.0477735           1.0828854           0.7110412
 Standard basis: 6-31+G(d,p) (6D, 7F)
 There are   196 symmetry adapted cartesian basis functions of A   symmetry.
 There are   196 symmetry adapted basis functions of A   symmetry.
   196 basis functions,   323 primitive gaussians,   196 cartesian basis functions
    34 alpha electrons       34 beta electrons
       nuclear repulsion energy       424.7724760077 Hartrees.
 NAtoms=   14 NActive=   14 NUniq=   14 SFac= 1.00D+00 NAtFMM=   60 NAOKFM=F Big=F
 Integral buffers will be    131072 words long.
 Raffenetti 2 integral format.
 Two-electron integral symmetry is turned on.
 ------------------------------------------------------------------------------
 Polarizable Continuum Model (PCM)
 =================================
 Model                : PCM.
 Atomic radii         : SMD-Coulomb.
 Polarization charges : Total charges.
 Charge compensation  : None.
 Solution method      : On-the-fly selection.
 Cavity type          : VdW (van der Waals Surface) (Alpha=1.000).
 Cavity algorithm     : GePol (No added spheres)
                        Default sphere list used, NSphG=   14.
                        Lebedev-Laikov grids with approx.  5.0 points / Ang**2.
                        Smoothing algorithm: York/Karplus (Gamma=1.0000).
                        Polarization charges: spherical gaussians, with
                                              point-specific exponents (IZeta= 3).
                        Self-potential: point-specific (ISelfS= 7).
                        Self-field    : sphere-specific E.n sum rule (ISelfD= 2).
 1st derivatives      : Analytical E(r).r(x)/FMM algorithm (CHGder, D1EAlg=3).
                        Cavity 1st derivative terms included.
 Solvent              : Water, Eps=  78.355300 Eps(inf)=   1.777849
 ------------------------------------------------------------------------------
 Spheres list:
 ISph  on   Nord     Re0    Alpha      Xe            Ye            Ze
    1   N      1    1.8900  1.000     -1.183706      0.684963     -0.099592
    2   N      2    1.8900  1.000     -0.435343     -0.396162     -0.174380
    3   C      3    1.8500  1.000     -1.301549     -1.401727     -0.032622
    4   C      4    1.8500  1.000     -2.579144     -0.852344      0.125481
    5   N      5    1.8900  1.000     -2.471848      0.478139      0.078881
    6   H      6    1.2000  1.000     -0.978798     -2.431934     -0.049995
    7   H      7    1.2000  1.000     -3.533263     -1.336173      0.265631
    8   H      8    1.2000  1.000     -0.756373      1.615321     -0.176304
    9   C      9    1.8500  1.000      2.290415     -0.731050      0.040570
   10   O     10    1.5200  1.000      2.134258     -1.879422     -0.048011
   11   O     11    1.5200  1.000      2.500746      0.410294      0.136073
   12   H     12    1.2000  1.000      1.292758      2.030348      0.051821
   13   O     13    1.5200  1.000      0.526689      2.614378     -0.046060
   14   H     14    1.2000  1.000      0.860077      3.502590      0.137895
 ------------------------------------------------------------------------------
 ------------------------------------------------------------------------------
 Atomic radii for non-electrostatic terms: SMD-CDS.
 ------------------------------------------------------------------------------
 Nuclear repulsion after PCM non-electrostatic terms =      424.7824776212 Hartrees.
 One-electron integrals computed using PRISM.
 NBasis=   196 RedAO= T EigKep=  3.38D-05  NBF=   196
 NBsUse=   196 1.00D-06 EigRej= -1.00D+00 NBFU=   196
 ExpMin= 4.38D-02 ExpMax= 5.48D+03 ExpMxC= 8.25D+02 IAcc=3 IRadAn=         5 AccDes= 0.00D+00
 Harris functional with IExCor= 1009 and IRadAn=       5 diagonalized for initial guess.
 HarFok:  IExCor= 1009 AccDes= 0.00D+00 IRadAn=         5 IDoV= 1 UseB2=F ITyADJ=14
 ICtDFT=  3500011 ScaDFX=  1.000000  1.000000  1.000000  1.000000
 FoFCou: FMM=F IPFlag=           0 FMFlag=      100000 FMFlg1=           0
         NFxFlg=           0 DoJE=T BraDBF=F KetDBF=T FulRan=T
         wScrn=  0.000000 ICntrl=       500 IOpCl=  0 I1Cent=   200000004 NGrid=           0
         NMat0=    1 NMatS0=      1 NMatT0=    0 NMatD0=    1 NMtDS0=    0 NMtDT0=    0
 Petite list used in FoFCou.
 Requested convergence on RMS density matrix=1.00D-08 within 128 cycles.
 Requested convergence on MAX density matrix=1.00D-06.
 Requested convergence on             energy=1.00D-06.
 No special actions if energy rises.
 Inv3:  Mode=1 IEnd=     4853952.
 Iteration    1 A*A^-1 deviation from unit magnitude is 3.11D-15 for   1272.
 Iteration    1 A*A^-1 deviation from orthogonality  is 2.16D-15 for   1259      7.
 Iteration    1 A^-1*A deviation from unit magnitude is 3.11D-15 for   1272.
 Iteration    1 A^-1*A deviation from orthogonality  is 1.68D-15 for    736    473.
 Error on total polarization charges =  0.03940
 SCF Done:  E(RM062X) =  -507.089071688     A.U. after   14 cycles
            NFock= 14  Conv=0.35D-08     -V/T= 2.0082
 SMD-CDS (non-electrostatic) energy       (kcal/mol) =       6.28
 (included in total energy above)

 **********************************************************************

            Population analysis using the SCF Density.

 **********************************************************************

 Orbital symmetries:
       Occupied  (A) (A) (A) (A) (A) (A) (A) (A) (A) (A) (A) (A)
                 (A) (A) (A) (A) (A) (A) (A) (A) (A) (A) (A) (A)
                 (A) (A) (A) (A) (A) (A) (A) (A) (A) (A)
       Virtual   (A) (A) (A) (A) (A) (A) (A) (A) (A) (A) (A) (A)
                 (A) (A) (A) (A) (A) (A) (A) (A) (A) (A) (A) (A)
                 (A) (A) (A) (A) (A) (A) (A) (A) (A) (A) (A) (A)
                 (A) (A) (A) (A) (A) (A) (A) (A) (A) (A) (A) (A)
                 (A) (A) (A) (A) (A) (A) (A) (A) (A) (A) (A) (A)
                 (A) (A) (A) (A) (A) (A) (A) (A) (A) (A) (A) (A)
                 (A) (A) (A) (A) (A) (A) (A) (A) (A) (A) (A) (A)
                 (A) (A) (A) (A) (A) (A) (A) (A) (A) (A) (A) (A)
                 (A) (A) (A) (A) (A) (A) (A) (A) (A) (A) (A) (A)
                 (A) (A) (A) (A) (A) (A) (A) (A) (A) (A) (A) (A)
                 (A) (A) (A) (A) (A) (A) (A) (A) (A) (A) (A) (A)
                 (A) (A) (A) (A) (A) (A) (A) (A) (A) (A) (A) (A)
                 (A) (A) (A) (A) (A) (A) (A) (A) (A) (A) (A) (A)
                 (A) (A) (A) (A) (A) (A)
 The electronic state is 1-A.
 Alpha  occ. eigenvalues --  -19.73079 -19.72955 -19.65895 -14.86341 -14.80759
 Alpha  occ. eigenvalues --  -14.80680 -10.75520 -10.57718 -10.57612  -1.29179
 Alpha  occ. eigenvalues --   -1.24230  -1.23055  -1.14459  -1.00174  -0.92345
 Alpha  occ. eigenvalues --   -0.71733  -0.71064  -0.66615  -0.63582  -0.62003
 Alpha  occ. eigenvalues --   -0.60112  -0.60070  -0.59662  -0.55589  -0.53613
 Alpha  occ. eigenvalues --   -0.51039  -0.47069  -0.44525  -0.44517  -0.41475
 Alpha  occ. eigenvalues --   -0.40173  -0.37813  -0.35666  -0.32869
 Alpha virt. eigenvalues --    0.01263   0.03065   0.03408   0.04283   0.04935
 Alpha virt. eigenvalues --    0.05565   0.06403   0.07003   0.07745   0.08203
 Alpha virt. eigenvalues --    0.08694   0.08787   0.09704   0.10556   0.13103
 Alpha virt. eigenvalues --    0.13773   0.14165   0.15485   0.16740   0.17685
 Alpha virt. eigenvalues --    0.19106   0.19942   0.20308   0.21076   0.22240
 Alpha virt. eigenvalues --    0.23424   0.24030   0.24455   0.24674   0.25211
 Alpha virt. eigenvalues --    0.26366   0.27024   0.27815   0.29238   0.29648
 Alpha virt. eigenvalues --    0.30182   0.30733   0.32705   0.33374   0.34428
 Alpha virt. eigenvalues --    0.34936   0.36359   0.37152   0.39082   0.40850
 Alpha virt. eigenvalues --    0.40991   0.42736   0.44691   0.45577   0.51842
 Alpha virt. eigenvalues --    0.56404   0.72140   0.73482   0.73730   0.76816
 Alpha virt. eigenvalues --    0.77777   0.80776   0.87070   0.89990   0.92747
 Alpha virt. eigenvalues --    0.93303   0.93966   0.95413   0.96234   0.97745
 Alpha virt. eigenvalues --    0.99963   1.01167   1.02711   1.04218   1.06016
 Alpha virt. eigenvalues --    1.10044   1.13596   1.14810   1.17511   1.18478
 Alpha virt. eigenvalues --    1.19073   1.20549   1.23897   1.24386   1.24906
 Alpha virt. eigenvalues --    1.28053   1.29586   1.31505   1.32543   1.32978
 Alpha virt. eigenvalues --    1.37041   1.38251   1.39610   1.41388   1.43206
 Alpha virt. eigenvalues --    1.46063   1.46791   1.48399   1.48991   1.51401
 Alpha virt. eigenvalues --    1.53264   1.56955   1.57646   1.58397   1.61089
 Alpha virt. eigenvalues --    1.65287   1.66842   1.70666   1.73536   1.77979
 Alpha virt. eigenvalues --    1.84458   1.88507   1.93045   1.96747   2.03276
 Alpha virt. eigenvalues --    2.08193   2.10147   2.10307   2.16097   2.18653
 Alpha virt. eigenvalues --    2.19039   2.19180   2.20537   2.25187   2.27919
 Alpha virt. eigenvalues --    2.28958   2.31615   2.34739   2.35809   2.44111
 Alpha virt. eigenvalues --    2.46883   2.52920   2.55650   2.56989   2.63879
 Alpha virt. eigenvalues --    2.65044   2.68135   2.68808   2.71499   2.73057
 Alpha virt. eigenvalues --    2.73778   2.78690   2.82970   2.85995   2.91110
 Alpha virt. eigenvalues --    3.02025   3.03442   3.06190   3.09335   3.14451
 Alpha virt. eigenvalues --    3.21226   3.31501   3.34764   3.37381   3.50176
 Alpha virt. eigenvalues --    3.57869   3.72996   3.73453   4.05227   4.15392
 Alpha virt. eigenvalues --    4.23593   4.31923   4.37768   4.45019   4.66069
 Alpha virt. eigenvalues --    4.67165   4.94961
          Condensed to atoms (all electrons):
               1          2          3          4          5          6
     1  N    7.205231  -0.134004  -0.103137   0.002032  -0.130761   0.022049
     2  N   -0.134004   7.118521   0.247480  -0.027204   0.181369  -0.057393
     3  C   -0.103137   0.247480   5.551248   0.066006  -0.042796   0.393246
     4  C    0.002032  -0.027204   0.066006   5.487655   0.334366  -0.013943
     5  N   -0.130761   0.181369  -0.042796   0.334366   6.944075  -0.008202
     6  H    0.022049  -0.057393   0.393246  -0.013943  -0.008202   0.444706
     7  H    0.031281  -0.013479  -0.018257   0.393621  -0.060895   0.000381
     8  H    0.316312  -0.036389   0.010990   0.007196  -0.039604  -0.000037
     9  C    0.006003  -0.005605  -0.014124   0.001657  -0.008523  -0.000469
    10  O    0.004751   0.007584  -0.028006   0.021520  -0.003496  -0.000015
    11  O   -0.015988   0.012793   0.008173  -0.008784   0.005671  -0.000028
    12  H   -0.003946   0.008014  -0.001486   0.001564  -0.003939  -0.000001
    13  O   -0.037541   0.010951   0.005877  -0.006543   0.003962   0.000029
    14  H    0.005236  -0.000622  -0.000099  -0.000078   0.001627  -0.000000
               7          8          9         10         11         12
     1  N    0.031281   0.316312   0.006003   0.004751  -0.015988  -0.003946
     2  N   -0.013479  -0.036389  -0.005605   0.007584   0.012793   0.008014
     3  C   -0.018257   0.010990  -0.014124  -0.028006   0.008173  -0.001486
     4  C    0.393621   0.007196   0.001657   0.021520  -0.008784   0.001564
     5  N   -0.060895  -0.039604  -0.008523  -0.003496   0.005671  -0.003939
     6  H    0.000381  -0.000037  -0.000469  -0.000015  -0.000028  -0.000001
     7  H    0.447500  -0.000024   0.000059  -0.000012   0.000000  -0.000000
     8  H   -0.000024   0.283872   0.000937   0.000068  -0.000312  -0.000605
     9  C    0.000059   0.000937   4.307720   0.445035   0.421863  -0.000899
    10  O   -0.000012   0.000068   0.445035   8.046898  -0.112039   0.000198
    11  O    0.000000  -0.000312   0.421863  -0.112039   8.123821   0.002895
    12  H   -0.000000  -0.000605  -0.000899   0.000198   0.002895   0.286829
    13  O    0.000015  -0.012676  -0.004549   0.000256  -0.000963   0.274926
    14  H   -0.000000   0.000586   0.000284   0.000000  -0.000037  -0.011432
              13         14
     1  N   -0.037541   0.005236
     2  N    0.010951  -0.000622
     3  C    0.005877  -0.000099
     4  C   -0.006543  -0.000078
     5  N    0.003962   0.001627
     6  H    0.000029  -0.000000
     7  H    0.000015  -0.000000
     8  H   -0.012676   0.000586
     9  C   -0.004549   0.000284
    10  O    0.000256   0.000000
    11  O   -0.000963  -0.000037
    12  H    0.274926  -0.011432
    13  O    8.356245   0.277031
    14  H    0.277031   0.261766
 Mulliken charges:
               1
     1  N   -0.167518
     2  N   -0.312017
     3  C   -0.075114
     4  C   -0.259066
     5  N   -0.172855
     6  H    0.219675
     7  H    0.219809
     8  H    0.469685
     9  C    0.850611
    10  O   -0.382742
    11  O   -0.437067
    12  H    0.447882
    13  O   -0.867020
    14  H    0.465737
 Sum of Mulliken charges =  -0.00000
 Mulliken charges with hydrogens summed into heavy atoms:
               1
     1  N    0.302167
     2  N   -0.312017
     3  C    0.144561
     4  C   -0.039257
     5  N   -0.172855
     9  C    0.850611
    10  O   -0.382742
    11  O   -0.437067
    13  O    0.046599
 Electronic spatial extent (au):  <R**2>=           1456.8993
 Charge=             -0.0000 electrons
 Dipole moment (field-independent basis, Debye):
    X=              2.6873    Y=              1.0128    Z=              0.6339  Tot=              2.9409
 Quadrupole moment (field-independent basis, Debye-Ang):
   XX=            -51.3254   YY=            -40.8435   ZZ=            -53.5330
   XY=             11.4455   XZ=              0.5198   YZ=              0.6089
 Traceless Quadrupole moment (field-independent basis, Debye-Ang):
   XX=             -2.7581   YY=              7.7238   ZZ=             -4.9656
   XY=             11.4455   XZ=              0.5198   YZ=              0.6089
 Octapole moment (field-independent basis, Debye-Ang**2):
  XXX=             33.3856  YYY=             54.7687  ZZZ=              0.4285  XYY=             11.3578
  XXY=            -12.7267  XXZ=              1.6580  XZZ=             11.1107  YZZ=              1.6808
  YYZ=              5.9604  XYZ=              2.7806
 Hexadecapole moment (field-independent basis, Debye-Ang**3):
 XXXX=          -1127.5854 YYYY=           -413.0953 ZZZZ=            -56.0392 XXXY=             66.1748
 XXXZ=             -6.5308 YYYX=             95.4360 YYYZ=             18.9783 ZZZX=              2.7118
 ZZZY=              0.8667 XXYY=           -281.7173 XXZZ=           -205.0247 YYZZ=           -120.9948
 XXYZ=             -5.9155 YYXZ=              6.8965 ZZXY=             -5.2856
 N-N= 4.247824776212D+02 E-N=-2.036235104904D+03  KE= 5.029490345126D+02
 D1PCM: PCM CHGder 1st derivatives, ID1Alg=3 FixD1E=F DoIter=F DoCFld=F I1PDM=0.
 Calling FoFJK, ICntrl=      2127 FMM=F ISym2X=0 I1Cent= 0 IOpClX= 0 NMat=1 NMatS=1 NMatT=0.
 ***** Axes restored to original set *****
 -------------------------------------------------------------------
 Center     Atomic                   Forces (Hartrees/Bohr)
 Number     Number              X              Y              Z
 -------------------------------------------------------------------
      1        7           0.006760339   -0.005774983    0.002433491
      2        7           0.000687085    0.000658858   -0.000265190
      3        6           0.000804133   -0.000973650   -0.000117959
      4        6           0.000221252   -0.001148292   -0.000029417
      5        7          -0.000941816   -0.000816436    0.000598306
      6        1           0.000068669   -0.000022894   -0.000054083
      7        1          -0.000010163   -0.000173134   -0.000084382
      8        1           0.002014152    0.001253386   -0.002261913
      9        6           0.000734054   -0.002092923    0.000224369
     10        8          -0.000352926    0.000984515   -0.000150901
     11        8          -0.000988766    0.000072102    0.000044951
     12        1          -0.000563959   -0.000120565    0.000065586
     13        8          -0.010494606    0.007156974   -0.000737487
     14        1           0.002062553    0.000997042    0.000334629
 -------------------------------------------------------------------
 Cartesian Forces:  Max     0.010494606 RMS     0.002564872

 GradGradGradGradGradGradGradGradGradGradGradGradGradGradGradGradGradGrad
 Berny optimization.
 FormGI is forming the generalized inverse of G from B-inverse, IUseBI=4.
 Internal  Forces:  Max     0.011798945 RMS     0.002446336
 Search for a local minimum.
 Step number   1 out of a maximum of   62
 All quantities printed in internal units (Hartrees-Bohrs-Radians)
 Mixed Optimization -- RFO/linear search
 Second derivative matrix not updated -- first step.
 ITU=  0
     Eigenvalues ---    0.00230   0.00230   0.00675   0.00730   0.01448
     Eigenvalues ---    0.01846   0.02185   0.02273   0.02325   0.02437
     Eigenvalues ---    0.04150   0.04807   0.04807   0.08515   0.15642
     Eigenvalues ---    0.16000   0.16000   0.16000   0.16000   0.16000
     Eigenvalues ---    0.22615   0.23228   0.25000   0.25000   0.36028
     Eigenvalues ---    0.36125   0.42261   0.43290   0.52918   0.53733
     Eigenvalues ---    0.54122   0.56236   0.59458   0.61994   1.24903
     Eigenvalues ---    1.26287
 RFO step:  Lambda=-2.25580566D-03 EMin= 2.30000000D-03
 Linear search not attempted -- first point.
 Iteration  1 RMS(Cart)=  0.06233177 RMS(Int)=  0.00074825
 Iteration  2 RMS(Cart)=  0.00245079 RMS(Int)=  0.00008802
 Iteration  3 RMS(Cart)=  0.00000337 RMS(Int)=  0.00008800
 Iteration  4 RMS(Cart)=  0.00000000 RMS(Int)=  0.00008800
 Variable       Old X    -DE/DX   Delta X   Delta X   Delta X     New X
                                 (Linear)    (Quad)   (Total)
    R1        2.48876   0.00004   0.00000   0.00009   0.00010   2.48885
    R2        2.48837   0.00013   0.00000   0.00025   0.00026   2.48863
    R3        1.94014   0.01079   0.00000   0.02479   0.02479   1.96493
    R4        2.52232   0.00110   0.00000   0.00185   0.00185   2.52417
    R5        2.64499  -0.00076   0.00000  -0.00172  -0.00172   2.64327
    R6        2.04038  -0.00000   0.00000  -0.00001  -0.00001   2.04037
    R7        2.52395   0.00109   0.00000   0.00185   0.00184   2.52579
    R8        2.03887   0.00007   0.00000   0.00019   0.00019   2.03906
    R9        3.08282   0.01180   0.00000   0.13499   0.13499   3.21781
   R10        2.19647  -0.00104   0.00000  -0.00082  -0.00082   2.19564
   R11        2.20056   0.00117   0.00000   0.00093   0.00093   2.20149
   R12        3.82216   0.00121   0.00000   0.02763   0.02763   3.84979
   R13        1.82975   0.00164   0.00000   0.00304   0.00304   1.83279
   R14        1.82621   0.00001   0.00000   0.00002   0.00002   1.82623
    A1        2.02043  -0.00163   0.00000  -0.00693  -0.00694   2.01349
    A2        2.09801  -0.00007   0.00000  -0.00197  -0.00199   2.09603
    A3        2.16474   0.00169   0.00000   0.00887   0.00885   2.17359
    A4        1.81692   0.00121   0.00000   0.00517   0.00517   1.82210
    A5        1.88458  -0.00038   0.00000  -0.00165  -0.00165   1.88292
    A6        2.12131   0.00027   0.00000   0.00133   0.00133   2.12264
    A7        2.27730   0.00011   0.00000   0.00032   0.00032   2.27762
    A8        1.88992  -0.00042   0.00000  -0.00181  -0.00182   1.88810
    A9        2.27294   0.00006   0.00000  -0.00001  -0.00001   2.27293
   A10        2.12033   0.00036   0.00000   0.00183   0.00183   2.12216
   A11        1.81293   0.00122   0.00000   0.00523   0.00523   1.81817
   A12        2.63904   0.00510   0.00000   0.02023   0.02023   2.65927
   A13        2.31009   0.00014   0.00000   0.00087   0.00087   2.31096
   A14        2.85732  -0.00024   0.00000  -0.00095  -0.00095   2.85637
   A15        1.83480   0.00095   0.00000   0.00883   0.00864   1.84344
   A16        2.58563  -0.00245   0.00000  -0.01286  -0.01313   2.57250
   A17        1.83609   0.00152   0.00000   0.01252   0.01234   1.84843
   A18        3.18879   0.00038   0.00000   0.00748   0.00748   3.19627
   A19        3.13835   0.00000   0.00000   0.00010   0.00010   3.13845
    D1       -0.00069  -0.00008   0.00000  -0.00204  -0.00205  -0.00274
    D2        3.13730  -0.00026   0.00000  -0.01117  -0.01113   3.12617
    D3        0.00011   0.00008   0.00000   0.00221   0.00221   0.00232
    D4       -3.13773   0.00028   0.00000   0.01176   0.01178  -3.12595
    D5       -0.41710   0.00070   0.00000   0.07136   0.07138  -0.34572
    D6        2.72058   0.00049   0.00000   0.06140   0.06138   2.78196
    D7        0.00095   0.00004   0.00000   0.00098   0.00099   0.00194
    D8       -3.14042   0.00007   0.00000   0.00224   0.00225  -3.13817
    D9       -0.00094   0.00001   0.00000   0.00028   0.00028  -0.00067
   D10        3.14117   0.00004   0.00000   0.00183   0.00182  -3.14019
   D11        3.14040  -0.00002   0.00000  -0.00114  -0.00114   3.13926
   D12       -0.00067   0.00001   0.00000   0.00040   0.00041  -0.00026
   D13        0.00050  -0.00005   0.00000  -0.00140  -0.00141  -0.00090
   D14       -3.14156  -0.00008   0.00000  -0.00279  -0.00279   3.13884
   D15        0.22260   0.00018   0.00000  -0.02187  -0.02202   0.20058
   D16       -2.60040  -0.00063   0.00000  -0.07632  -0.07616  -2.67656
   D17       -0.07018  -0.00025   0.00000  -0.05414  -0.05414  -0.12431
   D18        0.14410   0.00003   0.00000  -0.02046  -0.02079   0.12331
   D19        3.11354  -0.00030   0.00000   0.00406   0.00438   3.11793
         Item               Value     Threshold  Converged?
 Maximum Force            0.011799     0.000450     NO 
 RMS     Force            0.002446     0.000300     NO 
 Maximum Displacement     0.155032     0.001800     NO 
 RMS     Displacement     0.063795     0.001200     NO 
 Predicted change in Energy=-1.172395D-03
 GradGradGradGradGradGradGradGradGradGradGradGradGradGradGradGradGradGrad

                          Input orientation:                          
 ---------------------------------------------------------------------
 Center     Atomic      Atomic             Coordinates (Angstroms)
 Number     Number       Type             X           Y           Z
 ---------------------------------------------------------------------
      1          7           0        1.208205    0.695692   -0.009579
      2          7           0        0.515747   -0.415249    0.135068
      3          6           0        1.433277   -1.385376    0.100841
      4          6           0        2.685929   -0.786117   -0.067302
      5          7           0        2.509683    0.537158   -0.133338
      6          1           0        1.160549   -2.425963    0.193515
      7          1           0        3.666456   -1.230202   -0.142444
      8          1           0        0.721512    1.614295   -0.031449
      9          6           0       -2.311923   -0.834026   -0.054675
     10          8           0       -2.116927   -1.972270    0.073208
     11          8           0       -2.569598    0.294160   -0.188749
     12          1           0       -1.410861    1.967699   -0.271599
     13          8           0       -0.662231    2.583674   -0.243730
     14          1           0       -1.021620    3.448321   -0.482792
 ---------------------------------------------------------------------
                    Distance matrix (angstroms):
                    1          2          3          4          5
     1  N    0.000000
     2  N    1.317045   0.000000
     3  C    2.096114   1.335732   0.000000
     4  C    2.093503   2.210924   1.398757   0.000000
     5  N    1.316927   2.225961   2.215768   1.336593   0.000000
     6  H    3.128617   2.112382   1.079718   2.254752   3.272168
     7  H    3.125655   3.266210   2.251746   1.079024   2.112290
     8  H    1.039798   2.046733   3.085796   3.101966   2.090014
     9  C    3.838407   2.864803   3.788759   4.998097   5.013404
    10  O    4.263962   3.059267   3.598493   4.949154   5.267391
    11  O    3.803304   3.182369   4.350599   5.366778   5.085393
    12  H    2.923382   3.091219   4.412589   4.940539   4.175671
    13  O    2.667927   3.244173   4.501471   4.753608   3.776434
    14  H    3.573936   4.203858   5.452685   5.643493   4.589890
                    6          7          8          9         10
     6  H    0.000000
     7  H    2.796835   0.000000
     8  H    4.070264   4.095873   0.000000
     9  C    3.828045   5.992135   3.898274   0.000000
    10  O    3.310915   5.834783   4.575056   1.161885   0.000000
    11  O    4.632407   6.419828   3.549494   1.164979   2.325992
    12  H    5.112020   6.001866   2.174760   2.951039   4.017558
    13  O    5.348849   5.770047   1.702794   3.799724   4.793038
    14  H    6.302894   6.631929   2.570190   4.492957   5.558025
                   11         12         13         14
    11  O    0.000000
    12  H    2.037220   0.000000
    13  O    2.980427   0.969871   0.000000
    14  H    3.525823   1.545430   0.966398   0.000000
 Stoichiometry    C3H5N3O3
 Framework group  C1[X(C3H5N3O3)]
 Deg. of freedom    36
 Full point group                 C1      NOp   1
 Largest Abelian subgroup         C1      NOp   1
 Largest concise Abelian subgroup C1      NOp   1
                         Standard orientation:                         
 ---------------------------------------------------------------------
 Center     Atomic      Atomic             Coordinates (Angstroms)
 Number     Number       Type             X           Y           Z
 ---------------------------------------------------------------------
      1          7           0       -1.208386    0.696475   -0.085767
      2          7           0       -0.499692   -0.411556   -0.153806
      3          6           0       -1.400855   -1.390129   -0.033476
      4          6           0       -2.661033   -0.798983    0.104441
      5          7           0       -2.505574    0.527998    0.066600
      6          1           0       -1.112343   -2.430460   -0.049661
      7          1           0       -3.633259   -1.250952    0.226068
      8          1           0       -0.736478    1.621391   -0.140648
      9          6           0        2.336446   -0.771152    0.030879
     10          8           0        2.158505   -1.918710   -0.006875
     11          8           0        2.577289    0.367814    0.074766
     12          1           0        1.392533    2.024824    0.044115
     13          8           0        0.633707    2.625297   -0.021187
     14          1           0        0.981761    3.511158    0.146248
 ---------------------------------------------------------------------
 Rotational constants (GHZ):           2.0277878           1.0261905           0.6829303
 Standard basis: 6-31+G(d,p) (6D, 7F)
 There are   196 symmetry adapted cartesian basis functions of A   symmetry.
 There are   196 symmetry adapted basis functions of A   symmetry.
   196 basis functions,   323 primitive gaussians,   196 cartesian basis functions
    34 alpha electrons       34 beta electrons
       nuclear repulsion energy       420.1305826373 Hartrees.
 NAtoms=   14 NActive=   14 NUniq=   14 SFac= 1.00D+00 NAtFMM=   60 NAOKFM=F Big=F
 Integral buffers will be    131072 words long.
 Raffenetti 2 integral format.
 Two-electron integral symmetry is turned on.
 ------------------------------------------------------------------------------
 Polarizable Continuum Model (PCM)
 =================================
 Model                : PCM.
 Atomic radii         : SMD-Coulomb.
 Polarization charges : Total charges.
 Charge compensation  : None.
 Solution method      : On-the-fly selection.
 Cavity type          : VdW (van der Waals Surface) (Alpha=1.000).
 Cavity algorithm     : GePol (No added spheres)
                        Default sphere list used, NSphG=   14.
                        Lebedev-Laikov grids with approx.  5.0 points / Ang**2.
                        Smoothing algorithm: York/Karplus (Gamma=1.0000).
                        Polarization charges: spherical gaussians, with
                                              point-specific exponents (IZeta= 3).
                        Self-potential: point-specific (ISelfS= 7).
                        Self-field    : sphere-specific E.n sum rule (ISelfD= 2).
 1st derivatives      : Analytical E(r).r(x)/FMM algorithm (CHGder, D1EAlg=3).
                        Cavity 1st derivative terms included.
 Solvent              : Water, Eps=  78.355300 Eps(inf)=   1.777849
 ------------------------------------------------------------------------------
 Spheres list:
 ISph  on   Nord     Re0    Alpha      Xe            Ye            Ze
    1   N      1    1.8900  1.000     -1.208386      0.696475     -0.085767
    2   N      2    1.8900  1.000     -0.499692     -0.411556     -0.153806
    3   C      3    1.8500  1.000     -1.400855     -1.390129     -0.033476
    4   C      4    1.8500  1.000     -2.661033     -0.798983      0.104441
    5   N      5    1.8900  1.000     -2.505574      0.527998      0.066600
    6   H      6    1.2000  1.000     -1.112343     -2.430460     -0.049661
    7   H      7    1.2000  1.000     -3.633259     -1.250952      0.226068
    8   H      8    1.2000  1.000     -0.736478      1.621391     -0.140648
    9   C      9    1.8500  1.000      2.336446     -0.771152      0.030879
   10   O     10    1.5200  1.000      2.158505     -1.918710     -0.006875
   11   O     11    1.5200  1.000      2.577289      0.367814      0.074766
   12   H     12    1.2000  1.000      1.392533      2.024824      0.044115
   13   O     13    1.5200  1.000      0.633707      2.625297     -0.021187
   14   H     14    1.2000  1.000      0.981761      3.511158      0.146248
 ------------------------------------------------------------------------------
 ------------------------------------------------------------------------------
 Atomic radii for non-electrostatic terms: SMD-CDS.
 ------------------------------------------------------------------------------
 Nuclear repulsion after PCM non-electrostatic terms =      420.1407276209 Hartrees.
 One-electron integrals computed using PRISM.
 NBasis=   196 RedAO= T EigKep=  3.50D-05  NBF=   196
 NBsUse=   196 1.00D-06 EigRej= -1.00D+00 NBFU=   196
 Initial guess from the checkpoint file:  "/home/gau/soft/scratch/Gau-115451.chk"
 B after Tr=    -0.000000   -0.000000    0.000000
         Rot=    0.999940    0.000380   -0.000311    0.010932 Ang=   1.25 deg.
 ExpMin= 4.38D-02 ExpMax= 5.48D+03 ExpMxC= 8.25D+02 IAcc=3 IRadAn=         5 AccDes= 0.00D+00
 Harris functional with IExCor= 1009 and IRadAn=       5 diagonalized for initial guess.
 HarFok:  IExCor= 1009 AccDes= 0.00D+00 IRadAn=         5 IDoV= 1 UseB2=F ITyADJ=14
 ICtDFT=  3500011 ScaDFX=  1.000000  1.000000  1.000000  1.000000
 FoFCou: FMM=F IPFlag=           0 FMFlag=      100000 FMFlg1=           0
         NFxFlg=           0 DoJE=T BraDBF=F KetDBF=T FulRan=T
         wScrn=  0.000000 ICntrl=       500 IOpCl=  0 I1Cent=   200000004 NGrid=           0
         NMat0=    1 NMatS0=      1 NMatT0=    0 NMatD0=    1 NMtDS0=    0 NMtDT0=    0
 Petite list used in FoFCou.
 Requested convergence on RMS density matrix=1.00D-08 within 128 cycles.
 Requested convergence on MAX density matrix=1.00D-06.
 Requested convergence on             energy=1.00D-06.
 No special actions if energy rises.
 Inv3:  Mode=1 IEnd=     4953675.
 Iteration    1 A*A^-1 deviation from unit magnitude is 3.44D-15 for   1277.
 Iteration    1 A*A^-1 deviation from orthogonality  is 3.46D-15 for   1264     17.
 Iteration    1 A^-1*A deviation from unit magnitude is 3.22D-15 for   1277.
 Iteration    1 A^-1*A deviation from orthogonality  is 1.91D-13 for   1266   1174.
 Error on total polarization charges =  0.03963
 SCF Done:  E(RM062X) =  -507.090370725     A.U. after   12 cycles
            NFock= 12  Conv=0.30D-08     -V/T= 2.0084
 SMD-CDS (non-electrostatic) energy       (kcal/mol) =       6.37
 (included in total energy above)
 D1PCM: PCM CHGder 1st derivatives, ID1Alg=3 FixD1E=F DoIter=F DoCFld=F I1PDM=0.
 Calling FoFJK, ICntrl=      2127 FMM=F ISym2X=0 I1Cent= 0 IOpClX= 0 NMat=1 NMatS=1 NMatT=0.
 ***** Axes restored to original set *****
 -------------------------------------------------------------------
 Center     Atomic                   Forces (Hartrees/Bohr)
 Number     Number              X              Y              Z
 -------------------------------------------------------------------
      1        7          -0.000160078    0.001778360    0.001772542
      2        7          -0.003398353   -0.000586887   -0.000474119
      3        6          -0.000397225    0.000944181   -0.000006465
      4        6          -0.000599536    0.000836673    0.000064966
      5        7           0.001277595    0.001221073   -0.000398979
      6        1          -0.000155374    0.000135578    0.000081023
      7        1           0.000025685    0.000233297    0.000043502
      8        1           0.006962283   -0.007870251   -0.001323897
      9        6          -0.001268062   -0.001000234   -0.000167371
     10        8           0.001222420    0.000578577    0.000106838
     11        8           0.001223457   -0.000352300    0.000303338
     12        1           0.000751173    0.001715033   -0.000141093
     13        8          -0.006628776    0.002358383   -0.000024452
     14        1           0.001144790    0.000008516    0.000164169
 -------------------------------------------------------------------
 Cartesian Forces:  Max     0.007870251 RMS     0.002163951

 GradGradGradGradGradGradGradGradGradGradGradGradGradGradGradGradGradGrad
 Berny optimization.
 Using GEDIIS/GDIIS optimizer.
 FormGI is forming the generalized inverse of G from B-inverse, IUseBI=4.
 Internal  Forces:  Max     0.007998905 RMS     0.002110088
 Search for a local minimum.
 Step number   2 out of a maximum of   62
 All quantities printed in internal units (Hartrees-Bohrs-Radians)
 Mixed Optimization -- RFO/linear search
 Update second derivatives using D2CorX and points    1    2
 DE= -1.30D-03 DEPred=-1.17D-03 R= 1.11D+00
 TightC=F SS=  1.41D+00  RLast= 1.99D-01 DXNew= 5.0454D-01 5.9629D-01
 Trust test= 1.11D+00 RLast= 1.99D-01 DXMaxT set to 5.05D-01
 ITU=  1  0
 Use linear search instead of GDIIS.
     Eigenvalues ---    0.00227   0.00230   0.00605   0.00691   0.01442
     Eigenvalues ---    0.01826   0.02185   0.02272   0.02326   0.02446
     Eigenvalues ---    0.03673   0.04313   0.04807   0.05468   0.15551
     Eigenvalues ---    0.15978   0.16000   0.16000   0.16000   0.17330
     Eigenvalues ---    0.22617   0.23623   0.24537   0.30684   0.36028
     Eigenvalues ---    0.36125   0.42284   0.52405   0.52897   0.54112
     Eigenvalues ---    0.55763   0.59122   0.61563   0.63962   1.24877
     Eigenvalues ---    1.26268
 RFO step:  Lambda=-2.21943923D-03 EMin= 2.27247514D-03
 Quartic linear search produced a step of  0.29245.
 Iteration  1 RMS(Cart)=  0.13575690 RMS(Int)=  0.00578632
 Iteration  2 RMS(Cart)=  0.00985665 RMS(Int)=  0.00008373
 Iteration  3 RMS(Cart)=  0.00006277 RMS(Int)=  0.00007662
 Iteration  4 RMS(Cart)=  0.00000001 RMS(Int)=  0.00007662
 Variable       Old X    -DE/DX   Delta X   Delta X   Delta X     New X
                                 (Linear)    (Quad)   (Total)
    R1        2.48885   0.00074   0.00003   0.00149   0.00154   2.49039
    R2        2.48863  -0.00035   0.00008  -0.00059  -0.00050   2.48813
    R3        1.96493  -0.00561   0.00725  -0.00057   0.00668   1.97161
    R4        2.52417  -0.00093   0.00054  -0.00076  -0.00022   2.52395
    R5        2.64327   0.00099  -0.00050   0.00166   0.00114   2.64440
    R6        2.04037  -0.00008  -0.00000  -0.00029  -0.00029   2.04008
    R7        2.52579  -0.00075   0.00054  -0.00048   0.00005   2.52585
    R8        2.03906  -0.00008   0.00006  -0.00014  -0.00008   2.03897
    R9        3.21781   0.00474   0.03948   0.15078   0.19026   3.40807
   R10        2.19564  -0.00035  -0.00024  -0.00085  -0.00109   2.19456
   R11        2.20149   0.00039   0.00027   0.00096   0.00123   2.20272
   R12        3.84979  -0.00002   0.00808   0.01677   0.02485   3.87464
   R13        1.83279  -0.00209   0.00089  -0.00288  -0.00200   1.83079
   R14        1.82623  -0.00046   0.00001  -0.00103  -0.00103   1.82520
    A1        2.01349   0.00269  -0.00203   0.00987   0.00775   2.02124
    A2        2.09603  -0.00296  -0.00058  -0.02066  -0.02138   2.07464
    A3        2.17359   0.00026   0.00259   0.01047   0.01290   2.18649
    A4        1.82210  -0.00211   0.00151  -0.00759  -0.00605   1.81605
    A5        1.88292   0.00064  -0.00048   0.00237   0.00187   1.88479
    A6        2.12264  -0.00051   0.00039  -0.00234  -0.00194   2.12070
    A7        2.27762  -0.00013   0.00009  -0.00003   0.00007   2.27769
    A8        1.88810   0.00079  -0.00053   0.00289   0.00233   1.89043
    A9        2.27293  -0.00017  -0.00000  -0.00031  -0.00031   2.27262
   A10        2.12216  -0.00062   0.00053  -0.00258  -0.00204   2.12012
   A11        1.81817  -0.00201   0.00153  -0.00750  -0.00595   1.81222
   A12        2.65927  -0.00426   0.00592  -0.00827  -0.00235   2.65692
   A13        2.31096  -0.00256   0.00026  -0.01884  -0.01859   2.29237
   A14        2.85637  -0.00800  -0.00028  -0.03961  -0.03989   2.81648
   A15        1.84344  -0.00537   0.00253  -0.03875  -0.03634   1.80710
   A16        2.57250   0.00167  -0.00384   0.00158  -0.00237   2.57013
   A17        1.84843   0.00362   0.00361   0.03168   0.03517   1.88360
   A18        3.19627  -0.00287   0.00219  -0.06554  -0.06335   3.13292
   A19        3.13845   0.00017   0.00003   0.00424   0.00427   3.14272
    D1       -0.00274   0.00027  -0.00060   0.01278   0.01220   0.00946
    D2        3.12617  -0.00006  -0.00326  -0.01301  -0.01598   3.11019
    D3        0.00232  -0.00028   0.00065  -0.01311  -0.01252  -0.01020
    D4       -3.12595   0.00010   0.00344   0.01423   0.01799  -3.10796
    D5       -0.34572   0.00091   0.02087   0.16079   0.18161  -0.16411
    D6        2.78196   0.00056   0.01795   0.13246   0.15046   2.93242
    D7        0.00194  -0.00014   0.00029  -0.00684  -0.00648  -0.00454
    D8       -3.13817  -0.00014   0.00066  -0.00509  -0.00442   3.14060
    D9       -0.00067  -0.00002   0.00008  -0.00059  -0.00058  -0.00124
   D10       -3.14019   0.00001   0.00053   0.00254   0.00304  -3.13716
   D11        3.13926  -0.00003  -0.00033  -0.00255  -0.00289   3.13637
   D12       -0.00026   0.00001   0.00012   0.00058   0.00072   0.00046
   D13       -0.00090   0.00017  -0.00041   0.00774   0.00736   0.00646
   D14        3.13884   0.00014  -0.00082   0.00494   0.00412  -3.14022
   D15        0.20058  -0.00047  -0.00644  -0.09791  -0.10433   0.09625
   D16       -2.67656   0.00015  -0.02227  -0.06164  -0.08393  -2.76050
   D17       -0.12431  -0.00011  -0.01583  -0.07147  -0.08730  -0.21161
   D18        0.12331  -0.00013  -0.00608  -0.00877  -0.01485   0.10846
   D19        3.11793  -0.00024   0.00128  -0.02958  -0.02830   3.08963
         Item               Value     Threshold  Converged?
 Maximum Force            0.007999     0.000450     NO 
 RMS     Force            0.002110     0.000300     NO 
 Maximum Displacement     0.637530     0.001800     NO 
 RMS     Displacement     0.130882     0.001200     NO 
 Predicted change in Energy=-1.137792D-03
 GradGradGradGradGradGradGradGradGradGradGradGradGradGradGradGradGradGrad

                          Input orientation:                          
 ---------------------------------------------------------------------
 Center     Atomic      Atomic             Coordinates (Angstroms)
 Number     Number       Type             X           Y           Z
 ---------------------------------------------------------------------
      1          7           0        1.205920    0.688623   -0.035014
      2          7           0        0.464938   -0.395133    0.079757
      3          6           0        1.350961   -1.394523    0.086687
      4          6           0        2.629694   -0.839298   -0.034845
      5          7           0        2.504871    0.489028   -0.115602
      6          1           0        1.038992   -2.424503    0.171960
      7          1           0        3.596206   -1.317550   -0.071251
      8          1           0        0.734318    1.617512   -0.092437
      9          6           0       -2.147030   -0.844691   -0.036168
     10          8           0       -1.779560   -1.945368    0.009859
     11          8           0       -2.506287    0.263289   -0.081015
     12          1           0       -1.461993    2.020138   -0.245178
     13          8           0       -0.730883    2.655644   -0.259715
     14          1           0       -1.091947    3.518629   -0.500064
 ---------------------------------------------------------------------
                    Distance matrix (angstroms):
                    1          2          3          4          5
     1  N    0.000000
     2  N    1.317860   0.000000
     3  C    2.091732   1.335615   0.000000
     4  C    2.088462   2.212823   1.399358   0.000000
     5  N    1.316664   2.231868   2.218151   1.336620   0.000000
     6  H    3.124460   2.111014   1.079562   2.255210   3.274165
     7  H    3.120818   3.267797   2.252108   1.078979   2.111090
     8  H    1.043332   2.037880   3.079722   3.103495   2.099731
     9  C    3.686914   2.652908   3.543071   4.776727   4.839969
    10  O    3.981584   2.728715   3.179544   4.546088   4.929338
    11  O    3.736778   3.047547   4.201765   5.253202   5.016359
    12  H    2.989124   3.106795   4.436525   4.996250   4.254068
    13  O    2.769634   3.294309   4.567048   4.853727   3.896806
    14  H    3.674969   4.251778   5.518255   5.749658   4.718410
                    6          7          8          9         10
     6  H    0.000000
     7  H    2.797112   0.000000
     8  H    4.062094   4.099443   0.000000
     9  C    3.562283   5.762776   3.790485   0.000000
    10  O    2.863579   5.412910   4.361670   1.161311   0.000000
    11  O    4.456145   6.303933   3.512204   1.165631   2.326920
    12  H    5.117007   6.062655   2.238129   2.952999   3.986368
    13  O    5.396915   5.877541   1.803473   3.782564   4.726702
    14  H    6.349278   6.749169   2.667518   4.512977   5.530651
                   11         12         13         14
    11  O    0.000000
    12  H    2.050370   0.000000
    13  O    2.984520   0.968814   0.000000
    14  H    3.573962   1.564410   0.965856   0.000000
 Stoichiometry    C3H5N3O3
 Framework group  C1[X(C3H5N3O3)]
 Deg. of freedom    36
 Full point group                 C1      NOp   1
 Largest Abelian subgroup         C1      NOp   1
 Largest concise Abelian subgroup C1      NOp   1
                         Standard orientation:                         
 ---------------------------------------------------------------------
 Center     Atomic      Atomic             Coordinates (Angstroms)
 Number     Number       Type             X           Y           Z
 ---------------------------------------------------------------------
      1          7           0       -1.110147    0.792634   -0.060282
      2          7           0       -0.448757   -0.346334   -0.105762
      3          6           0       -1.402811   -1.278374   -0.035413
      4          6           0       -2.637611   -0.626687    0.058272
      5          7           0       -2.418695    0.691819    0.045278
      6          1           0       -1.165156   -2.331330   -0.051485
      7          1           0       -3.634748   -1.031444    0.136271
      8          1           0       -0.573719    1.687427   -0.071757
      9          6           0        2.126510   -0.971219    0.018497
     10          8           0        1.682033   -2.043569    0.052393
     11          8           0        2.563291    0.108900   -0.017014
     12          1           0        1.647322    1.942603    0.033512
     13          8           0        0.962928    2.627920    0.010122
     14          1           0        1.386955    3.477572    0.186670
 ---------------------------------------------------------------------
 Rotational constants (GHZ):           1.9813922           1.1242745           0.7181092
 Standard basis: 6-31+G(d,p) (6D, 7F)
 There are   196 symmetry adapted cartesian basis functions of A   symmetry.
 There are   196 symmetry adapted basis functions of A   symmetry.
   196 basis functions,   323 primitive gaussians,   196 cartesian basis functions
    34 alpha electrons       34 beta electrons
       nuclear repulsion energy       425.2886970232 Hartrees.
 NAtoms=   14 NActive=   14 NUniq=   14 SFac= 1.00D+00 NAtFMM=   60 NAOKFM=F Big=F
 Integral buffers will be    131072 words long.
 Raffenetti 2 integral format.
 Two-electron integral symmetry is turned on.
 ------------------------------------------------------------------------------
 Polarizable Continuum Model (PCM)
 =================================
 Model                : PCM.
 Atomic radii         : SMD-Coulomb.
 Polarization charges : Total charges.
 Charge compensation  : None.
 Solution method      : On-the-fly selection.
 Cavity type          : VdW (van der Waals Surface) (Alpha=1.000).
 Cavity algorithm     : GePol (No added spheres)
                        Default sphere list used, NSphG=   14.
                        Lebedev-Laikov grids with approx.  5.0 points / Ang**2.
                        Smoothing algorithm: York/Karplus (Gamma=1.0000).
                        Polarization charges: spherical gaussians, with
                                              point-specific exponents (IZeta= 3).
                        Self-potential: point-specific (ISelfS= 7).
                        Self-field    : sphere-specific E.n sum rule (ISelfD= 2).
 1st derivatives      : Analytical E(r).r(x)/FMM algorithm (CHGder, D1EAlg=3).
                        Cavity 1st derivative terms included.
 Solvent              : Water, Eps=  78.355300 Eps(inf)=   1.777849
 ------------------------------------------------------------------------------
 Spheres list:
 ISph  on   Nord     Re0    Alpha      Xe            Ye            Ze
    1   N      1    1.8900  1.000     -1.110147      0.792634     -0.060282
    2   N      2    1.8900  1.000     -0.448757     -0.346334     -0.105762
    3   C      3    1.8500  1.000     -1.402811     -1.278374     -0.035413
    4   C      4    1.8500  1.000     -2.637611     -0.626687      0.058272
    5   N      5    1.8900  1.000     -2.418695      0.691819      0.045278
    6   H      6    1.2000  1.000     -1.165156     -2.331330     -0.051485
    7   H      7    1.2000  1.000     -3.634748     -1.031444      0.136271
    8   H      8    1.2000  1.000     -0.573719      1.687427     -0.071757
    9   C      9    1.8500  1.000      2.126510     -0.971219      0.018497
   10   O     10    1.5200  1.000      1.682033     -2.043569      0.052393
   11   O     11    1.5200  1.000      2.563291      0.108900     -0.017014
   12   H     12    1.2000  1.000      1.647322      1.942603      0.033512
   13   O     13    1.5200  1.000      0.962928      2.627920      0.010122
   14   H     14    1.2000  1.000      1.386955      3.477572      0.186670
 ------------------------------------------------------------------------------
 ------------------------------------------------------------------------------
 Atomic radii for non-electrostatic terms: SMD-CDS.
 ------------------------------------------------------------------------------
 Nuclear repulsion after PCM non-electrostatic terms =      425.2986752048 Hartrees.
 One-electron integrals computed using PRISM.
 NBasis=   196 RedAO= T EigKep=  2.98D-05  NBF=   196
 NBsUse=   196 1.00D-06 EigRej= -1.00D+00 NBFU=   196
 Initial guess from the checkpoint file:  "/home/gau/soft/scratch/Gau-115451.chk"
 B after Tr=     0.000000    0.000000   -0.000000
         Rot=    0.998824   -0.000537    0.000499    0.048473 Ang=  -5.56 deg.
 ExpMin= 4.38D-02 ExpMax= 5.48D+03 ExpMxC= 8.25D+02 IAcc=3 IRadAn=         5 AccDes= 0.00D+00
 Harris functional with IExCor= 1009 and IRadAn=       5 diagonalized for initial guess.
 HarFok:  IExCor= 1009 AccDes= 0.00D+00 IRadAn=         5 IDoV= 1 UseB2=F ITyADJ=14
 ICtDFT=  3500011 ScaDFX=  1.000000  1.000000  1.000000  1.000000
 FoFCou: FMM=F IPFlag=           0 FMFlag=      100000 FMFlg1=           0
         NFxFlg=           0 DoJE=T BraDBF=F KetDBF=T FulRan=T
         wScrn=  0.000000 ICntrl=       500 IOpCl=  0 I1Cent=   200000004 NGrid=           0
         NMat0=    1 NMatS0=      1 NMatT0=    0 NMatD0=    1 NMtDS0=    0 NMtDT0=    0
 Petite list used in FoFCou.
 Requested convergence on RMS density matrix=1.00D-08 within 128 cycles.
 Requested convergence on MAX density matrix=1.00D-06.
 Requested convergence on             energy=1.00D-06.
 No special actions if energy rises.
 Inv3:  Mode=1 IEnd=     4777932.
 Iteration    1 A*A^-1 deviation from unit magnitude is 4.77D-15 for   1250.
 Iteration    1 A*A^-1 deviation from orthogonality  is 2.02D-15 for    676    470.
 Iteration    1 A^-1*A deviation from unit magnitude is 5.00D-15 for   1250.
 Iteration    1 A^-1*A deviation from orthogonality  is 6.49D-15 for    752    745.
 Error on total polarization charges =  0.03973
 SCF Done:  E(RM062X) =  -507.089864366     A.U. after   13 cycles
            NFock= 13  Conv=0.80D-08     -V/T= 2.0084
 SMD-CDS (non-electrostatic) energy       (kcal/mol) =       6.26
 (included in total energy above)
 D1PCM: PCM CHGder 1st derivatives, ID1Alg=3 FixD1E=F DoIter=F DoCFld=F I1PDM=0.
 Calling FoFJK, ICntrl=      2127 FMM=F ISym2X=0 I1Cent= 0 IOpClX= 0 NMat=1 NMatS=1 NMatT=0.
 ***** Axes restored to original set *****
 -------------------------------------------------------------------
 Center     Atomic                   Forces (Hartrees/Bohr)
 Number     Number              X              Y              Z
 -------------------------------------------------------------------
      1        7          -0.008289174    0.009331832   -0.001278005
      2        7           0.005510810    0.003017180    0.000623022
      3        6          -0.000699102    0.000080134   -0.000226863
      4        6          -0.000506001    0.000509036   -0.000322360
      5        7          -0.000292991    0.000847493    0.000769527
      6        1           0.000091619   -0.000157992    0.000067820
      7        1           0.000010176    0.000136333    0.000093487
      8        1           0.010314703   -0.010395306    0.000101812
      9        6           0.007788004    0.001722166    0.000491657
     10        8          -0.008875799   -0.003469880   -0.000389677
     11        8          -0.003433243   -0.002516284   -0.000044177
     12        1          -0.001377490    0.003573410   -0.001046538
     13        8           0.001165471   -0.001105357    0.001232939
     14        1          -0.001406983   -0.001572765   -0.000072644
 -------------------------------------------------------------------
 Cartesian Forces:  Max     0.010395306 RMS     0.003816176

 GradGradGradGradGradGradGradGradGradGradGradGradGradGradGradGradGradGrad
 Berny optimization.
 Using GEDIIS/GDIIS optimizer.
 FormGI is forming the generalized inverse of G from B-inverse, IUseBI=4.
 Internal  Forces:  Max     0.030870865 RMS     0.007990638
 Search for a local minimum.
 Step number   3 out of a maximum of   62
 All quantities printed in internal units (Hartrees-Bohrs-Radians)
 Mixed Optimization -- RFO/linear search
 Update second derivatives using D2CorX and points    1    3    2
 DE=  5.06D-04 DEPred=-1.14D-03 R=-4.45D-01
 Trust test=-4.45D-01 RLast= 3.60D-01 DXMaxT set to 2.52D-01
 ITU= -1  1  0
 Use linear search instead of GDIIS.
     Eigenvalues ---    0.00199   0.00232   0.00541   0.00735   0.01425
     Eigenvalues ---    0.01830   0.02185   0.02271   0.02325   0.02441
     Eigenvalues ---    0.03056   0.04458   0.04808   0.06470   0.15534
     Eigenvalues ---    0.15960   0.16000   0.16000   0.16134   0.20704
     Eigenvalues ---    0.22616   0.23692   0.25568   0.36028   0.36125
     Eigenvalues ---    0.42262   0.51860   0.52899   0.53811   0.54391
     Eigenvalues ---    0.56296   0.59898   0.61781   1.01428   1.25011
     Eigenvalues ---    1.26278
 RFO step:  Lambda=-2.55979104D-03 EMin= 1.99412667D-03
 Quartic linear search produced a step of -0.56100.
 Iteration  1 RMS(Cart)=  0.11299413 RMS(Int)=  0.00898807
 Iteration  2 RMS(Cart)=  0.02177265 RMS(Int)=  0.00017674
 Iteration  3 RMS(Cart)=  0.00037295 RMS(Int)=  0.00004001
 Iteration  4 RMS(Cart)=  0.00000013 RMS(Int)=  0.00004001
 Variable       Old X    -DE/DX   Delta X   Delta X   Delta X     New X
                                 (Linear)    (Quad)   (Total)
    R1        2.49039  -0.00467  -0.00086  -0.00050  -0.00137   2.48903
    R2        2.48813  -0.00044   0.00028  -0.00136  -0.00108   2.48705
    R3        1.97161  -0.01415  -0.00375  -0.02103  -0.02477   1.94684
    R4        2.52395  -0.00066   0.00012  -0.00225  -0.00213   2.52182
    R5        2.64440  -0.00063  -0.00064   0.00290   0.00227   2.64667
    R6        2.04008   0.00013   0.00017  -0.00034  -0.00017   2.03991
    R7        2.52585  -0.00078  -0.00003  -0.00177  -0.00179   2.52405
    R8        2.03897  -0.00005   0.00005  -0.00034  -0.00030   2.03868
    R9        3.40807   0.00303  -0.10674   0.21138   0.10465   3.51272
   R10        2.19456   0.00046   0.00061  -0.00095  -0.00034   2.19422
   R11        2.20272   0.00133  -0.00069   0.00163   0.00093   2.20366
   R12        3.87464   0.00596  -0.01394   0.06772   0.05378   3.92842
   R13        1.83079   0.00489   0.00112  -0.00230  -0.00118   1.82962
   R14        1.82520  -0.00086   0.00058  -0.00224  -0.00167   1.82353
    A1        2.02124   0.00008  -0.00435   0.01767   0.01337   2.03461
    A2        2.07464   0.00367   0.01200  -0.02423  -0.01218   2.06246
    A3        2.18649  -0.00372  -0.00724   0.00553  -0.00164   2.18486
    A4        1.81605   0.00125   0.00339  -0.01254  -0.00916   1.80688
    A5        1.88479  -0.00085  -0.00105   0.00329   0.00224   1.88703
    A6        2.12070   0.00056   0.00109  -0.00337  -0.00228   2.11842
    A7        2.27769   0.00029  -0.00004   0.00008   0.00004   2.27774
    A8        1.89043  -0.00046  -0.00131   0.00510   0.00379   1.89422
    A9        2.27262   0.00035   0.00017  -0.00015   0.00002   2.27265
   A10        2.12012   0.00011   0.00114  -0.00496  -0.00381   2.11631
   A11        1.81222  -0.00002   0.00334  -0.01368  -0.01035   1.80187
   A12        2.65692   0.01250   0.00132  -0.00175  -0.00043   2.65649
   A13        2.29237   0.02423   0.01043   0.02423   0.03466   2.32704
   A14        2.81648   0.03087   0.02238  -0.01839   0.00399   2.82047
   A15        1.80710   0.02382   0.02039  -0.00769   0.01272   1.81983
   A16        2.57013  -0.00974   0.00133  -0.01223  -0.01090   2.55924
   A17        1.88360  -0.01375  -0.01973   0.01956  -0.00013   1.88347
   A18        3.13292   0.02089   0.03554   0.04288   0.07842   3.21134
   A19        3.14272  -0.00080  -0.00240   0.00101  -0.00139   3.14133
    D1        0.00946  -0.00049  -0.00684   0.01398   0.00716   0.01662
    D2        3.11019   0.00018   0.00897  -0.01192  -0.00310   3.10709
    D3       -0.01020   0.00050   0.00702  -0.01462  -0.00760  -0.01780
    D4       -3.10796  -0.00041  -0.01009   0.01393   0.00371  -3.10425
    D5       -0.16411  -0.00071  -0.10188   0.22945   0.12756  -0.03654
    D6        2.93242   0.00014  -0.08441   0.20109   0.11668   3.04910
    D7       -0.00454   0.00026   0.00363  -0.00707  -0.00345  -0.00799
    D8        3.14060   0.00010   0.00248  -0.00760  -0.00512   3.13548
    D9       -0.00124   0.00002   0.00032  -0.00112  -0.00077  -0.00202
   D10       -3.13716  -0.00021  -0.00170   0.00001  -0.00170  -3.13886
   D11        3.13637   0.00020   0.00162  -0.00054   0.00109   3.13747
   D12        0.00046  -0.00003  -0.00041   0.00058   0.00017   0.00063
   D13        0.00646  -0.00030  -0.00413   0.00878   0.00462   0.01107
   D14       -3.14022  -0.00009  -0.00231   0.00779   0.00546  -3.13477
   D15        0.09625   0.00107   0.05853  -0.14818  -0.08972   0.00653
   D16       -2.76050  -0.00172   0.04709  -0.14977  -0.10262  -2.86312
   D17       -0.21161  -0.00194   0.04898  -0.25414  -0.20517  -0.41678
   D18        0.10846  -0.00034   0.00833  -0.03674  -0.02851   0.07995
   D19        3.08963  -0.00052   0.01587  -0.03996  -0.02398   3.06565
         Item               Value     Threshold  Converged?
 Maximum Force            0.030871     0.000450     NO 
 RMS     Force            0.007991     0.000300     NO 
 Maximum Displacement     0.543983     0.001800     NO 
 RMS     Displacement     0.124045     0.001200     NO 
 Predicted change in Energy=-1.729326D-03
 GradGradGradGradGradGradGradGradGradGradGradGradGradGradGradGradGradGrad

                          Input orientation:                          
 ---------------------------------------------------------------------
 Center     Atomic      Atomic             Coordinates (Angstroms)
 Number     Number       Type             X           Y           Z
 ---------------------------------------------------------------------
      1          7           0        1.262242    0.690434   -0.073309
      2          7           0        0.518769   -0.384090    0.092510
      3          6           0        1.409809   -1.376594    0.135482
      4          6           0        2.686479   -0.822944   -0.023090
      5          7           0        2.561268    0.499410   -0.163506
      6          1           0        1.102383   -2.402403    0.271362
      7          1           0        3.654270   -1.299101   -0.045752
      8          1           0        0.788019    1.600088   -0.168188
      9          6           0       -2.258787   -0.866208   -0.061638
     10          8           0       -2.067424   -2.003201   -0.198929
     11          8           0       -2.530567    0.259137    0.078294
     12          1           0       -1.469712    2.026774   -0.189244
     13          8           0       -0.738370    2.656064   -0.270043
     14          1           0       -1.110181    3.514430   -0.506973
 ---------------------------------------------------------------------
                    Distance matrix (angstroms):
                    1          2          3          4          5
     1  N    0.000000
     2  N    1.317137   0.000000
     3  C    2.082781   1.334490   0.000000
     4  C    2.078770   2.214707   1.400557   0.000000
     5  N    1.316090   2.240071   2.221406   1.335670   0.000000
     6  H    3.116087   2.108597   1.079472   2.256271   3.276885
     7  H    3.111400   3.269209   2.253099   1.078822   2.107881
     8  H    1.030223   2.019262   3.056055   3.081604   2.087085
     9  C    3.849795   2.823299   3.709171   4.945606   5.010811
    10  O    4.284639   3.065102   3.549030   4.901380   5.262044
    11  O    3.820262   3.116471   4.266785   5.329048   5.103233
    12  H    3.043488   3.137787   4.469900   5.042066   4.310720
    13  O    2.811557   3.309740   4.587096   4.888157   3.943364
    14  H    3.713679   4.267472   5.539424   5.784599   4.763177
                    6          7          8          9         10
     6  H    0.000000
     7  H    2.798207   0.000000
     8  H    4.038807   4.078686   0.000000
     9  C    3.710559   5.928903   3.921352   0.000000
    10  O    3.229274   5.766888   4.597629   1.161129   0.000000
    11  O    4.507704   6.379318   3.587745   1.166125   2.325840
    12  H    5.142513   6.110420   2.297794   3.001378   4.074071
    13  O    5.410137   5.915144   1.858850   3.842070   4.845636
    14  H    6.364760   6.788432   2.717103   4.550562   5.608517
                   11         12         13         14
    11  O    0.000000
    12  H    2.078829   0.000000
    13  O    3.013066   0.968191   0.000000
    14  H    3.599579   1.563117   0.964973   0.000000
 Stoichiometry    C3H5N3O3
 Framework group  C1[X(C3H5N3O3)]
 Deg. of freedom    36
 Full point group                 C1      NOp   1
 Largest Abelian subgroup         C1      NOp   1
 Largest concise Abelian subgroup C1      NOp   1
                         Standard orientation:                         
 ---------------------------------------------------------------------
 Center     Atomic      Atomic             Coordinates (Angstroms)
 Number     Number       Type             X           Y           Z
 ---------------------------------------------------------------------
      1          7           0       -1.234864    0.724144   -0.017569
      2          7           0       -0.496608   -0.360388   -0.134273
      3          6           0       -1.391216   -1.350437   -0.115765
      4          6           0       -2.664377   -0.784440    0.026611
      5          7           0       -2.533475    0.542990    0.095947
      6          1           0       -1.088511   -2.383116   -0.200639
      7          1           0       -3.633392   -1.255123    0.084278
      8          1           0       -0.756767    1.635747    0.024414
      9          6           0        2.280859   -0.844124    0.016380
     10          8           0        2.087316   -1.971600    0.215279
     11          8           0        2.554749    0.271281   -0.185372
     12          1           0        1.502412    2.054499   -0.000297
     13          8           0        0.773973    2.689899    0.054812
     14          1           0        1.150990    3.558140    0.242398
 ---------------------------------------------------------------------
 Rotational constants (GHZ):           1.9557970           1.0302561           0.6784144
 Standard basis: 6-31+G(d,p) (6D, 7F)
 There are   196 symmetry adapted cartesian basis functions of A   symmetry.
 There are   196 symmetry adapted basis functions of A   symmetry.
   196 basis functions,   323 primitive gaussians,   196 cartesian basis functions
    34 alpha electrons       34 beta electrons
       nuclear repulsion energy       418.7866008876 Hartrees.
 NAtoms=   14 NActive=   14 NUniq=   14 SFac= 1.00D+00 NAtFMM=   60 NAOKFM=F Big=F
 Integral buffers will be    131072 words long.
 Raffenetti 2 integral format.
 Two-electron integral symmetry is turned on.
 ------------------------------------------------------------------------------
 Polarizable Continuum Model (PCM)
 =================================
 Model                : PCM.
 Atomic radii         : SMD-Coulomb.
 Polarization charges : Total charges.
 Charge compensation  : None.
 Solution method      : On-the-fly selection.
 Cavity type          : VdW (van der Waals Surface) (Alpha=1.000).
 Cavity algorithm     : GePol (No added spheres)
                        Default sphere list used, NSphG=   14.
                        Lebedev-Laikov grids with approx.  5.0 points / Ang**2.
                        Smoothing algorithm: York/Karplus (Gamma=1.0000).
                        Polarization charges: spherical gaussians, with
                                              point-specific exponents (IZeta= 3).
                        Self-potential: point-specific (ISelfS= 7).
                        Self-field    : sphere-specific E.n sum rule (ISelfD= 2).
 1st derivatives      : Analytical E(r).r(x)/FMM algorithm (CHGder, D1EAlg=3).
                        Cavity 1st derivative terms included.
 Solvent              : Water, Eps=  78.355300 Eps(inf)=   1.777849
 ------------------------------------------------------------------------------
 Spheres list:
 ISph  on   Nord     Re0    Alpha      Xe            Ye            Ze
    1   N      1    1.8900  1.000     -1.234864      0.724144     -0.017569
    2   N      2    1.8900  1.000     -0.496608     -0.360388     -0.134273
    3   C      3    1.8500  1.000     -1.391216     -1.350437     -0.115765
    4   C      4    1.8500  1.000     -2.664377     -0.784440      0.026611
    5   N      5    1.8900  1.000     -2.533475      0.542990      0.095947
    6   H      6    1.2000  1.000     -1.088511     -2.383116     -0.200639
    7   H      7    1.2000  1.000     -3.633392     -1.255123      0.084278
    8   H      8    1.2000  1.000     -0.756767      1.635747      0.024414
    9   C      9    1.8500  1.000      2.280859     -0.844124      0.016380
   10   O     10    1.5200  1.000      2.087316     -1.971600      0.215279
   11   O     11    1.5200  1.000      2.554749      0.271281     -0.185372
   12   H     12    1.2000  1.000      1.502412      2.054499     -0.000297
   13   O     13    1.5200  1.000      0.773973      2.689899      0.054812
   14   H     14    1.2000  1.000      1.150990      3.558140      0.242398
 ------------------------------------------------------------------------------
[...]
 Predicted change in Energy=-9.105297D-07
 Optimization stopped.
    -- Number of steps exceeded,  NStep=  62
    -- Flag reset to prevent archiving.
                           ----------------------------
                           ! Non-Optimized Parameters !
                           ! (Angstroms and Degrees)  !
 --------------------------                            --------------------------
 ! Name  Definition              Value          Derivative Info.                !
 --------------------------------------------------------------------------------
 ! R1    R(1,2)                  1.317          -DE/DX =    0.0                 !
 ! R2    R(1,5)                  1.3168         -DE/DX =   -0.0001              !
 ! R3    R(1,8)                  1.0264         -DE/DX =    0.0                 !
 ! R4    R(2,3)                  1.3348         -DE/DX =    0.0                 !
 ! R5    R(3,4)                  1.3997         -DE/DX =    0.0                 !
 ! R6    R(3,6)                  1.0797         -DE/DX =    0.0                 !
 ! R7    R(4,5)                  1.3356         -DE/DX =    0.0                 !
 ! R8    R(4,7)                  1.0789         -DE/DX =    0.0                 !
 ! R9    R(8,13)                 1.8717         -DE/DX =    0.0                 !
 ! R10   R(9,10)                 1.1623         -DE/DX =    0.0                 !
 ! R11   R(9,11)                 1.1645         -DE/DX =    0.0001              !
 ! R12   R(11,12)                2.1315         -DE/DX =    0.0001              !
 ! R13   R(12,13)                0.9682         -DE/DX =    0.0001              !
 ! R14   R(13,14)                0.9664         -DE/DX =    0.0                 !
 ! A1    A(2,1,5)              115.7715         -DE/DX =    0.0                 !
 ! A2    A(2,1,8)              120.1877         -DE/DX =   -0.0001              !
 ! A3    A(5,1,8)              124.0403         -DE/DX =    0.0001              !
 ! A4    A(1,2,3)              104.0947         -DE/DX =    0.0                 !
 ! A5    A(2,3,4)              107.981          -DE/DX =    0.0                 !
 ! A6    A(2,3,6)              121.5386         -DE/DX =    0.0                 !
 ! A7    A(4,3,6)              130.4804         -DE/DX =    0.0                 !
 ! A8    A(3,4,5)              108.2869         -DE/DX =    0.0                 !
 ! A9    A(3,4,7)              130.235          -DE/DX =    0.0                 !
 ! A10   A(5,4,7)              121.4781         -DE/DX =    0.0                 !
 ! A11   A(1,5,4)              103.8659         -DE/DX =    0.0                 !
 ! A12   A(1,8,13)             153.7209         -DE/DX =    0.0                 !
 ! A13   A(9,11,12)            135.3788         -DE/DX =    0.0003              !
 ! A14   A(11,12,13)           156.4108         -DE/DX =    0.0001              !
 ! A15   A(8,13,12)            102.4113         -DE/DX =    0.0001              !
 ! A16   A(8,13,14)            112.5044         -DE/DX =    0.0                 !
 ! A17   A(12,13,14)           105.223          -DE/DX =    0.0                 !
 ! A18   L(10,9,11,1,-1)       182.6785         -DE/DX =    0.0002              !
 ! A19   L(10,9,11,1,-2)       180.1986         -DE/DX =    0.0                 !
 ! D1    D(5,1,2,3)              0.0031         -DE/DX =    0.0                 !
 ! D2    D(8,1,2,3)           -179.7647         -DE/DX =    0.0                 !
 ! D3    D(2,1,5,4)              0.0273         -DE/DX =    0.0                 !
 ! D4    D(8,1,5,4)            179.7851         -DE/DX =    0.0                 !
 ! D5    D(2,1,8,13)             5.0317         -DE/DX =    0.0                 !
 ! D6    D(5,1,8,13)          -174.7159         -DE/DX =    0.0                 !
 ! D7    D(1,2,3,4)             -0.0314         -DE/DX =    0.0                 !
 ! D8    D(1,2,3,6)            179.96           -DE/DX =    0.0                 !
 ! D9    D(2,3,4,5)              0.0496         -DE/DX =    0.0                 !
 ! D10   D(2,3,4,7)           -179.9928         -DE/DX =    0.0                 !
 ! D11   D(6,3,4,5)           -179.9407         -DE/DX =    0.0                 !
 ! D12   D(6,3,4,7)              0.0169         -DE/DX =    0.0                 !
 ! D13   D(3,4,5,1)             -0.045          -DE/DX =    0.0                 !
 ! D14   D(7,4,5,1)            179.9929         -DE/DX =    0.0                 !
 ! D15   D(1,8,13,12)            0.1242         -DE/DX =    0.0001              !
 ! D16   D(1,8,13,14)         -112.3456         -DE/DX =    0.0                 !
 ! D17   D(9,11,12,13)         -47.1367         -DE/DX =    0.0                 !
 ! D18   D(11,12,13,8)          25.4054         -DE/DX =    0.0                 !
 ! D19   D(11,12,13,14)        143.1837         -DE/DX =    0.0                 !
 --------------------------------------------------------------------------------
 GradGradGradGradGradGradGradGradGradGradGradGradGradGradGradGradGradGrad

                          Input orientation:                          
 ---------------------------------------------------------------------
 Center     Atomic      Atomic             Coordinates (Angstroms)
 Number     Number       Type             X           Y           Z
 ---------------------------------------------------------------------
      1          7           0        1.189580    0.702060   -0.053849
      2          7           0        0.480956   -0.403517   -0.152691
      3          6           0        1.389405   -1.379128   -0.085653
      4          6           0        2.649796   -0.786835    0.054788
      5          7           0        2.490232    0.539063    0.072260
      6          1           0        1.105903   -2.419575   -0.139339
      7          1           0        3.626038   -1.238036    0.141139
      8          1           0        0.724544    1.616881   -0.074195
      9          6           0       -2.222801   -0.866624    0.091296
     10          8           0       -2.016637   -1.999607   -0.066043
     11          8           0       -2.482340    0.256535    0.256386
     12          1           0       -1.504740    2.106880   -0.114812
     13          8           0       -0.771218    2.738994   -0.110319
     14          1           0       -0.850520    3.224706   -0.941995
 ---------------------------------------------------------------------
                    Distance matrix (angstroms):
                    1          2          3          4          5
     1  N    0.000000
     2  N    1.316897   0.000000
     3  C    2.091001   1.334763   0.000000
     4  C    2.088263   2.212205   1.399686   0.000000
     5  N    1.316878   2.230751   2.217254   1.335579   0.000000
     6  H    3.123926   2.110741   1.079715   2.255467   3.273329
     7  H    3.120628   3.267155   2.252525   1.078929   2.110185
     8  H    1.026435   2.036542   3.068915   3.082382   2.073836
     9  C    3.758481   2.753961   3.652671   4.873388   4.918232
    10  O    4.192729   2.965296   3.462152   4.822967   5.174538
    11  O    3.711837   3.063353   4.216964   5.241000   4.983994
    12  H    3.039177   3.201017   4.530913   5.065819   4.295678
    13  O    2.827900   3.383062   4.650573   4.915493   3.938285
    14  H    3.363712   3.944595   5.190942   5.416480   4.404773
                    6          7          8          9         10
     6  H    0.000000
     7  H    2.797460   0.000000
     8  H    4.054954   4.076222   0.000000
     9  C    3.680370   5.860832   3.857723   0.000000
    10  O    3.151508   5.697605   4.537965   1.162286   0.000000
    11  O    4.493734   6.289619   3.499133   1.164518   2.326159
    12  H    5.225404   6.130159   2.282861   3.065912   4.138557
    13  O    5.489559   5.934295   1.870226   3.892072   4.899731
    14  H    6.027417   6.413175   2.412262   4.437323   5.424074
                   11         12         13         14
    11  O    0.000000
    12  H    2.125386   0.000000
    13  O    3.037271   0.968320   0.000000
    14  H    3.592909   1.536806   0.966381   0.000000
 Stoichiometry    C3H5N3O3
 Framework group  C1[X(C3H5N3O3)]
 Deg. of freedom    36
 Full point group                 C1      NOp   1
 Largest Abelian subgroup         C1      NOp   1
 Largest concise Abelian subgroup C1      NOp   1
                         Standard orientation:                         
 ---------------------------------------------------------------------
 Center     Atomic      Atomic             Coordinates (Angstroms)
 Number     Number       Type             X           Y           Z
 ---------------------------------------------------------------------
      1          7           0       -1.174717    0.719980    0.005797
      2          7           0       -0.468926   -0.383492    0.141538
      3          6           0       -1.377968   -1.359449    0.089175
      4          6           0       -2.635761   -0.769519   -0.081305
      5          7           0       -2.474049    0.555292   -0.131257
      6          1           0       -1.096647   -2.398485    0.173115
      7          1           0       -3.611593   -1.221663   -0.167354
      8          1           0       -0.708602    1.634475    0.007873
      9          6           0        2.236808   -0.855938   -0.058713
     10          8           0        2.027152   -1.984218    0.125506
     11          8           0        2.499911    0.262259   -0.249801
     12          1           0        1.520777    2.122750    0.061864
     13          8           0        0.788290    2.755394    0.032411
     14          1           0        0.858600    3.262412    0.852094
 ---------------------------------------------------------------------
 Rotational constants (GHZ):           1.9105672           1.0724498           0.6920778

 **********************************************************************

            Population analysis using the SCF Density.

 **********************************************************************

 Orbital symmetries:
       Occupied  (A) (A) (A) (A) (A) (A) (A) (A) (A) (A) (A) (A)
                 (A) (A) (A) (A) (A) (A) (A) (A) (A) (A) (A) (A)
                 (A) (A) (A) (A) (A) (A) (A) (A) (A) (A)
       Virtual   (A) (A) (A) (A) (A) (A) (A) (A) (A) (A) (A) (A)
                 (A) (A) (A) (A) (A) (A) (A) (A) (A) (A) (A) (A)
                 (A) (A) (A) (A) (A) (A) (A) (A) (A) (A) (A) (A)
                 (A) (A) (A) (A) (A) (A) (A) (A) (A) (A) (A) (A)
                 (A) (A) (A) (A) (A) (A) (A) (A) (A) (A) (A) (A)
                 (A) (A) (A) (A) (A) (A) (A) (A) (A) (A) (A) (A)
                 (A) (A) (A) (A) (A) (A) (A) (A) (A) (A) (A) (A)
                 (A) (A) (A) (A) (A) (A) (A) (A) (A) (A) (A) (A)
                 (A) (A) (A) (A) (A) (A) (A) (A) (A) (A) (A) (A)
                 (A) (A) (A) (A) (A) (A) (A) (A) (A) (A) (A) (A)
                 (A) (A) (A) (A) (A) (A) (A) (A) (A) (A) (A) (A)
                 (A) (A) (A) (A) (A) (A) (A) (A) (A) (A) (A) (A)
                 (A) (A) (A) (A) (A) (A) (A) (A) (A) (A) (A) (A)
                 (A) (A) (A) (A) (A) (A)
 The electronic state is 1-A.
 Alpha  occ. eigenvalues --  -19.72936 -19.72852 -19.65561 -14.86996 -14.80943
 Alpha  occ. eigenvalues --  -14.80908 -10.75380 -10.57875 -10.57786  -1.29054
 Alpha  occ. eigenvalues --   -1.24098  -1.23306  -1.13748  -1.00391  -0.92549
 Alpha  occ. eigenvalues --   -0.71605  -0.71246  -0.66350  -0.63209  -0.61826
 Alpha  occ. eigenvalues --   -0.60074  -0.59947  -0.59386  -0.55810  -0.52450
 Alpha  occ. eigenvalues --   -0.51187  -0.48010  -0.44424  -0.44373  -0.40955
 Alpha  occ. eigenvalues --   -0.40229  -0.37951  -0.35822  -0.33138
 Alpha virt. eigenvalues --    0.01264   0.02844   0.03406   0.04349   0.04856
 Alpha virt. eigenvalues --    0.05585   0.06464   0.06959   0.07948   0.08253
 Alpha virt. eigenvalues --    0.08681   0.08791   0.09862   0.10726   0.13131
 Alpha virt. eigenvalues --    0.13510   0.14433   0.15184   0.16729   0.17766
 Alpha virt. eigenvalues --    0.18910   0.19261   0.20052   0.21060   0.22002
 Alpha virt. eigenvalues --    0.23420   0.23875   0.24220   0.24625   0.25271
 Alpha virt. eigenvalues --    0.26178   0.26542   0.27225   0.28474   0.29528
 Alpha virt. eigenvalues --    0.29750   0.31014   0.31779   0.33005   0.34260
 Alpha virt. eigenvalues --    0.34558   0.35708   0.37291   0.37566   0.40347
 Alpha virt. eigenvalues --    0.40825   0.43296   0.44107   0.45949   0.51764
 Alpha virt. eigenvalues --    0.56502   0.72161   0.73593   0.74293   0.77115
 Alpha virt. eigenvalues --    0.77808   0.80326   0.87746   0.91006   0.93166
 Alpha virt. eigenvalues --    0.93749   0.93837   0.95565   0.96087   0.98053
 Alpha virt. eigenvalues --    1.00007   1.01087   1.02588   1.04536   1.04934
 Alpha virt. eigenvalues --    1.07199   1.11454   1.13093   1.17669   1.18848
 Alpha virt. eigenvalues --    1.19222   1.19522   1.22229   1.23678   1.24215
 Alpha virt. eigenvalues --    1.25946   1.29270   1.31156   1.32420   1.32870
 Alpha virt. eigenvalues --    1.35044   1.37050   1.39325   1.41123   1.43041
 Alpha virt. eigenvalues --    1.44495   1.46704   1.48689   1.49208   1.51537
 Alpha virt. eigenvalues --    1.52928   1.56810   1.56923   1.58313   1.58783
 Alpha virt. eigenvalues --    1.64346   1.65074   1.66226   1.78621   1.79265
 Alpha virt. eigenvalues --    1.83136   1.89837   1.92922   1.96809   2.02632
 Alpha virt. eigenvalues --    2.08518   2.09935   2.10169   2.13527   2.18898
 Alpha virt. eigenvalues --    2.18998   2.19358   2.20593   2.24006   2.27530
 Alpha virt. eigenvalues --    2.28274   2.30976   2.34260   2.34530   2.43487
 Alpha virt. eigenvalues --    2.45957   2.52947   2.55686   2.57239   2.63614
 Alpha virt. eigenvalues --    2.65791   2.67011   2.68053   2.71267   2.73249
 Alpha virt. eigenvalues --    2.73705   2.74356   2.82326   2.83605   2.91201
 Alpha virt. eigenvalues --    3.02289   3.03677   3.06625   3.07116   3.14319
 Alpha virt. eigenvalues --    3.17325   3.31434   3.34601   3.37194   3.45821
 Alpha virt. eigenvalues --    3.57145   3.63980   3.73238   4.02954   4.15009
 Alpha virt. eigenvalues --    4.22761   4.24374   4.33105   4.44855   4.65769
 Alpha virt. eigenvalues --    4.67161   4.92933
          Condensed to atoms (all electrons):
               1          2          3          4          5          6
     1  N    7.323376  -0.132071  -0.077648  -0.009979  -0.292319   0.022217
     2  N   -0.132071   7.065868   0.246119  -0.021650   0.196382  -0.057620
     3  C   -0.077648   0.246119   5.536749   0.071921  -0.058104   0.392871
     4  C   -0.009979  -0.021650   0.071921   5.480251   0.336411  -0.013361
     5  N   -0.292319   0.196382  -0.058104   0.336411   7.132223  -0.008336
     6  H    0.022217  -0.057620   0.392871  -0.013361  -0.008336   0.443030
     7  H    0.032964  -0.013410  -0.019350   0.395251  -0.062801   0.000377
     8  H    0.299653  -0.032739   0.011713   0.004998  -0.022370  -0.000033
     9  C    0.005278  -0.006687  -0.014869   0.002043  -0.008327  -0.000447
    10  O    0.005818   0.006146  -0.028623   0.021990  -0.003302  -0.000021
    11  O   -0.011356   0.009834   0.007339  -0.008817   0.007185  -0.000047
    12  H   -0.006303   0.006722  -0.000926   0.001140  -0.004206  -0.000000
    13  O   -0.044484  -0.003342   0.015453  -0.013470   0.032706   0.000026
    14  H    0.001916  -0.000465  -0.000860   0.000708  -0.003101  -0.000000
               7          8          9         10         11         12
     1  N    0.032964   0.299653   0.005278   0.005818  -0.011356  -0.006303
     2  N   -0.013410  -0.032739  -0.006687   0.006146   0.009834   0.006722
     3  C   -0.019350   0.011713  -0.014869  -0.028623   0.007339  -0.000926
     4  C    0.395251   0.004998   0.002043   0.021990  -0.008817   0.001140
     5  N   -0.062801  -0.022370  -0.008327  -0.003302   0.007185  -0.004206
     6  H    0.000377  -0.000033  -0.000447  -0.000021  -0.000047  -0.000000
     7  H    0.444842  -0.000021   0.000057  -0.000012  -0.000000  -0.000000
     8  H   -0.000021   0.287304   0.000623   0.000092  -0.000037  -0.001255
     9  C    0.000057   0.000623   4.318161   0.443138   0.422105  -0.000662
    10  O   -0.000012   0.000092   0.443138   8.049852  -0.110903   0.000037
    11  O   -0.000000  -0.000037   0.422105  -0.110903   8.116979   0.001990
    12  H   -0.000000  -0.001255  -0.000662   0.000037   0.001990   0.285624
    13  O    0.000012   0.004415  -0.006236  -0.000258   0.000062   0.281330
    14  H   -0.000000  -0.001412   0.000707  -0.000012  -0.000451  -0.018709
              13         14
     1  N   -0.044484   0.001916
     2  N   -0.003342  -0.000465
     3  C    0.015453  -0.000860
     4  C   -0.013470   0.000708
     5  N    0.032706  -0.003101
     6  H    0.000026  -0.000000
     7  H    0.000012  -0.000000
     8  H    0.004415  -0.001412
     9  C   -0.006236   0.000707
    10  O   -0.000258  -0.000012
    11  O    0.000062  -0.000451
    12  H    0.281330  -0.018709
    13  O    8.306423   0.294378
    14  H    0.294378   0.283883
 Mulliken charges:
               1
     1  N   -0.117061
     2  N   -0.263087
     3  C   -0.081784
     4  C   -0.247437
     5  N   -0.242042
     6  H    0.221345
     7  H    0.222090
     8  H    0.449067
     9  C    0.845115
    10  O   -0.383943
    11  O   -0.433884
    12  H    0.455218
    13  O   -0.867015
    14  H    0.443419
 Sum of Mulliken charges =  -0.00000
 Mulliken charges with hydrogens summed into heavy atoms:
               1
     1  N    0.332006
     2  N   -0.263087
     3  C    0.139561
     4  C   -0.025347
     5  N   -0.242042
     9  C    0.845115
    10  O   -0.383943
    11  O   -0.433884
    13  O    0.031622
 Electronic spatial extent (au):  <R**2>=           1498.6304
 Charge=             -0.0000 electrons
 Dipole moment (field-independent basis, Debye):
    X=              1.8107    Y=             -0.1738    Z=              1.9378  Tot=              2.6578
 Quadrupole moment (field-independent basis, Debye-Ang):
   XX=            -50.9107   YY=            -48.2231   ZZ=            -51.5990
   XY=              8.8754   XZ=              1.6351   YZ=              7.5855
 Traceless Quadrupole moment (field-independent basis, Debye-Ang):
   XX=             -0.6665   YY=              2.0211   ZZ=             -1.3547
   XY=              8.8754   XZ=              1.6351   YZ=              7.5855
 Octapole moment (field-independent basis, Debye-Ang**2):
  XXX=             29.8480  YYY=             20.0000  ZZZ=              2.3155  XYY=              0.9578
  XXY=            -17.3156  XXZ=              3.2248  XZZ=             12.6241  YZZ=              7.4174
  YYZ=             22.2940  XYZ=              6.5870
 Hexadecapole moment (field-independent basis, Debye-Ang**3):
 XXXX=          -1124.2272 YYYY=           -609.4817 ZZZZ=            -56.4359 XXXY=             66.7582
 XXXZ=              6.6148 YYYX=             49.4429 YYYZ=             78.2537 ZZZX=              0.2813
 ZZZY=              9.6960 XXYY=           -300.3853 XXZZ=           -207.8652 YYZZ=           -106.8785
 XXYZ=             15.2533 YYXZ=             16.0479 ZZXY=             -0.3018
 N-N= 4.206309523462D+02 E-N=-2.027705481570D+03  KE= 5.028806674780D+02


 "WOULD YOU TELL ME PLEASE, WHICH WAY I OUGHT TO WALK FROM HERE?"
 "THAT DEPENDS A GREAT DEAL ON WHERE YOU WANT TO GO," SAID THE CAT.
 "I DON'T MUCH CARE WHERE -- ", SAID ALICE.
 "THEN IT DOESN'T MATTER WHICH WAY YOU WALK," SAID THE CAT.

                                      -- LEWIS CARROLL
 Error termination request processed by link 9999.
 Error termination via Lnk1e in /home/gau/soft/g16/l9999.exe at Thu Dec  7 08:31:40 2023.
 Job cpu time:       0 days  6 hours  9 minutes 48.6 seconds.
 Elapsed time:       0 days  0 hours  8 minutes 15.9 seconds.
 File lengths (MBytes):  RWF=     82 Int=      0 D2E=      0 Chk=      6 Scr=      1
