 Entering Gaussian System, Link 0=/opt/soft/g16/g16
 Initial command:
 /opt/soft/g16/l1.exe "/scratch/gongke2021/TS/Gau-32163.inp" -scrdir="/scratch/gongke2021/TS/"
 Entering Link 1 = /opt/soft/g16/l1.exe PID=     32164.
  
 Copyright (c) 1988,1990,1992,1993,1995,1998,2003,2009,2016,
            Gaussian, Inc.  All Rights Reserved.
  
 This is part of the Gaussian(R) 16 program.  It is based on
 the Gaussian(R) 09 system (copyright 2009, Gaussian, Inc.),
 the Gaussian(R) 03 system (copyright 2003, Gaussian, Inc.),
 the Gaussian(R) 98 system (copyright 1998, Gaussian, Inc.),
 the Gaussian(R) 94 system (copyright 1995, Gaussian, Inc.),
 the Gaussian 92(TM) system (copyright 1992, Gaussian, Inc.),
 the Gaussian 90(TM) system (copyright 1990, Gaussian, Inc.),
 the Gaussian 88(TM) system (copyright 1988, Gaussian, Inc.),
 the Gaussian 86(TM) system (copyright 1986, Carnegie Mellon
 University), and the Gaussian 82(TM) system (copyright 1983,
 Carnegie Mellon University). Gaussian is a federally registered
 trademark of Gaussian, Inc.
  
 This software contains proprietary and confidential information,
 including trade secrets, belonging to Gaussian, Inc.
  
 This software is provided under written license and may be
 used, copied, transmitted, or stored only in accord with that
 written license.
  
 The following legend is applicable only to US Government
 contracts under FAR:
  
                    RESTRICTED RIGHTS LEGEND
  
 Use, reproduction and disclosure by the US Government is
 subject to restrictions as set forth in subparagraphs (a)
 and (c) of the Commercial Computer Software - Restricted
 Rights clause in FAR 52.227-19.
  
 Gaussian, Inc.
 340 Quinnipiac St., Bldg. 40, Wallingford CT 06492
  
  
 ---------------------------------------------------------------
 Warning -- This program may not be used in any manner that
 competes with the business of Gaussian, Inc. or will provide
 assistance to any competitor of Gaussian, Inc.  The licensee
 of this program is prohibited from giving any competitor of
 Gaussian, Inc. access to this program.  By using this program,
 the user acknowledges that Gaussian, Inc. is engaged in the
 business of creating and licensing software in the field of
 computational chemistry and represents and warrants to the
 licensee that it is not a competitor of Gaussian, Inc. and that
 it will not use this program in any manner prohibited above.
 ---------------------------------------------------------------
  

 Cite this work as:
 Gaussian 16, Revision A.03,
 M. J. Frisch, G. W. Trucks, H. B. Schlegel, G. E. Scuseria, 
 M. A. Robb, J. R. Cheeseman, G. Scalmani, V. Barone, 
 G. A. Petersson, H. Nakatsuji, X. Li, M. Caricato, A. V. Marenich, 
 J. Bloino, B. G. Janesko, R. Gomperts, B. Mennucci, H. P. Hratchian, 
 J. V. Ortiz, A. F. Izmaylov, J. L. Sonnenberg, D. Williams-Young, 
 F. Ding, F. Lipparini, F. Egidi, J. Goings, B. Peng, A. Petrone, 
 T. Henderson, D. Ranasinghe, V. G. Zakrzewski, J. Gao, N. Rega, 
 G. Zheng, W. Liang, M. Hada, M. Ehara, K. Toyota, R. Fukuda, 
 J. Hasegawa, M. Ishida, T. Nakajima, Y. Honda, O. Kitao, H. Nakai, 
 T. Vreven, K. Throssell, J. A. Montgomery, Jr., J. E. Peralta, 
 F. Ogliaro, M. J. Bearpark, J. J. Heyd, E. N. Brothers, K. N. Kudin, 
 V. N. Staroverov, T. A. Keith, R. Kobayashi, J. Normand, 
 K. Raghavachari, A. P. Rendell, J. C. Burant, S. S. Iyengar, 
 J. Tomasi, M. Cossi, J. M. Millam, M. Klene, C. Adamo, R. Cammi, 
 J. W. Ochterski, R. L. Martin, K. Morokuma, O. Farkas, 
 J. B. Foresman, and D. J. Fox, Gaussian, Inc., Wallingford CT, 2016.
 
 ******************************************
 Gaussian 16:  ES64L-G16RevA.03 25-Dec-2016
                 6-Jul-2023 
 ******************************************
 %mem=10GB
 %nprocshared=20
 Will use up to   20 processors via shared memory.
 ----------------------------------------------------------------------
 # opt=(calcfc,ts,noeigentest) freq 6-31+g(d,p) integral=grid=ultrafine
  m062x scrf=(SMD,solvent=water)
 ----------------------------------------------------------------------
 1/5=1,10=4,11=1,18=20,26=6,38=1/1,3;
 2/9=110,12=2,17=6,18=5,40=1/2;
 3/5=1,6=6,7=111,11=2,25=1,30=1,70=32201,71=2,72=1,74=-55,75=-5,140=1/1,2,3;
 4//1;
 5/5=2,38=5,53=1/2;
 8/6=4,10=90,11=11/1;
 11/6=1,8=1,9=11,15=111,16=1/1,2,10;
 10/6=1,13=1/2;
 6/7=2,8=2,9=2,10=2,28=1/1;
 7/10=1,18=20,25=1/1,2,3,16;
 1/5=1,10=4,11=1,18=20,26=6/3(2);
 2/9=110/2;
 99//99;
 2/9=110/2;
 3/5=1,6=6,7=111,11=2,25=1,30=1,70=32205,71=1,72=1,74=-55,75=-5/1,2,3;
 4/5=5,16=3,69=1/1;
 5/5=2,38=5,53=1/2;
 7//1,2,3,16;
 1/5=1,11=1,18=20,26=6/3(-5);
 2/9=110/2;
 6/7=2,8=2,9=2,10=2,19=2,28=1/1;
 99/9=1/99;
 ----
 test
 ----
 Symbolic Z-matrix:
 Charge =  0 Multiplicity = 1
 N                    -0.83858  -0.8028   -0.00107 
 N                    -0.35628   0.42484   0.00037 
 C                    -1.44718   1.18732   0.00116 
 C                    -2.57144   0.34435   0.00026 
 N                    -2.14939  -0.91853  -0.00108 
 H                    -1.37506   2.26355   0.00217 
 H                    -3.62392   0.58021   0.00057 
 H                     0.27717  -1.71832   0.08576 
 C                     1.27944   0.0169   -0.15794 
 O                     1.96095   1.16305  -0.06777 
 O                     1.67025  -1.14467  -0.08549 
 
 Add virtual bond connecting atoms H8         and N1         Dist= 2.73D+00.
 Add virtual bond connecting atoms H8         and O11        Dist= 2.87D+00.

 GradGradGradGradGradGradGradGradGradGradGradGradGradGradGradGradGradGrad
 Berny optimization.
 Initialization pass.
                           ----------------------------
                           !    Initial Parameters    !
                           ! (Angstroms and Degrees)  !
 --------------------------                            --------------------------
 ! Name  Definition              Value          Derivative Info.                !
 --------------------------------------------------------------------------------
 ! R1    R(1,2)                  1.319          calculate D2E/DX2 analytically  !
 ! R2    R(1,5)                  1.3159         calculate D2E/DX2 analytically  !
 ! R3    R(1,8)                  1.4459         calculate D2E/DX2 analytically  !
 ! R4    R(2,3)                  1.331          calculate D2E/DX2 analytically  !
 ! R5    R(2,9)                  1.6932         calculate D2E/DX2 analytically  !
 ! R6    R(3,4)                  1.4052         calculate D2E/DX2 analytically  !
 ! R7    R(3,6)                  1.0786         calculate D2E/DX2 analytically  !
 ! R8    R(4,5)                  1.3315         calculate D2E/DX2 analytically  !
 ! R9    R(4,7)                  1.0786         calculate D2E/DX2 analytically  !
 ! R10   R(8,11)                 1.5163         calculate D2E/DX2 analytically  !
 ! R11   R(9,10)                 1.3365         calculate D2E/DX2 analytically  !
 ! R12   R(9,11)                 1.2277         calculate D2E/DX2 analytically  !
 ! A1    A(2,1,5)              116.4943         calculate D2E/DX2 analytically  !
 ! A2    A(2,1,8)              107.8845         calculate D2E/DX2 analytically  !
 ! A3    A(5,1,8)              135.4784         calculate D2E/DX2 analytically  !
 ! A4    A(1,2,3)              103.5026         calculate D2E/DX2 analytically  !
 ! A5    A(1,2,9)               97.4061         calculate D2E/DX2 analytically  !
 ! A6    A(3,2,9)              158.4152         calculate D2E/DX2 analytically  !
 ! A7    A(2,3,4)              108.1865         calculate D2E/DX2 analytically  !
 ! A8    A(2,3,6)              121.1174         calculate D2E/DX2 analytically  !
 ! A9    A(4,3,6)              130.6961         calculate D2E/DX2 analytically  !
 ! A10   A(3,4,5)              108.3832         calculate D2E/DX2 analytically  !
 ! A11   A(3,4,7)              130.5065         calculate D2E/DX2 analytically  !
 ! A12   A(5,4,7)              121.1104         calculate D2E/DX2 analytically  !
 ! A13   A(1,5,4)              103.4334         calculate D2E/DX2 analytically  !
 ! A14   A(1,8,11)             117.5574         calculate D2E/DX2 analytically  !
 ! A15   A(2,9,10)             106.2411         calculate D2E/DX2 analytically  !
 ! A16   A(2,9,11)             122.0021         calculate D2E/DX2 analytically  !
 ! A17   A(10,9,11)            130.1714         calculate D2E/DX2 analytically  !
 ! A18   A(8,11,9)              94.1373         calculate D2E/DX2 analytically  !
 ! D1    D(5,1,2,3)             -0.0105         calculate D2E/DX2 analytically  !
 ! D2    D(5,1,2,9)           -174.6126         calculate D2E/DX2 analytically  !
 ! D3    D(8,1,2,3)           -176.342          calculate D2E/DX2 analytically  !
 ! D4    D(8,1,2,9)              9.056          calculate D2E/DX2 analytically  !
 ! D5    D(2,1,5,4)              0.0102         calculate D2E/DX2 analytically  !
 ! D6    D(8,1,5,4)            175.0282         calculate D2E/DX2 analytically  !
 ! D7    D(2,1,8,11)           -10.3279         calculate D2E/DX2 analytically  !
 ! D8    D(5,1,8,11)           174.3566         calculate D2E/DX2 analytically  !
 ! D9    D(1,2,3,4)              0.0061         calculate D2E/DX2 analytically  !
 ! D10   D(1,2,3,6)           -179.9866         calculate D2E/DX2 analytically  !
 ! D11   D(9,2,3,4)            165.3164         calculate D2E/DX2 analytically  !
 ! D12   D(9,2,3,6)            -14.6763         calculate D2E/DX2 analytically  !
 ! D13   D(1,2,9,10)          -175.142          calculate D2E/DX2 analytically  !
 ! D14   D(1,2,9,11)            -8.15           calculate D2E/DX2 analytically  !
 ! D15   D(3,2,9,10)            19.2556         calculate D2E/DX2 analytically  !
 ! D16   D(3,2,9,11)          -173.7524         calculate D2E/DX2 analytically  !
 ! D17   D(2,3,4,5)             -0.0004         calculate D2E/DX2 analytically  !
 ! D18   D(2,3,4,7)            179.9945         calculate D2E/DX2 analytically  !
 ! D19   D(6,3,4,5)            179.9913         calculate D2E/DX2 analytically  !
 ! D20   D(6,3,4,7)             -0.0138         calculate D2E/DX2 analytically  !
 ! D21   D(3,4,5,1)             -0.0054         calculate D2E/DX2 analytically  !
 ! D22   D(7,4,5,1)            179.9991         calculate D2E/DX2 analytically  !
 ! D23   D(1,8,11,9)             4.3824         calculate D2E/DX2 analytically  !
 ! D24   D(2,9,11,8)             2.2086         calculate D2E/DX2 analytically  !
 ! D25   D(10,9,11,8)          165.7803         calculate D2E/DX2 analytically  !
 --------------------------------------------------------------------------------
 Trust Radius=3.00D-01 FncErr=5.00D-06 GrdErr=5.00D-06 EigMax=2.50D+02 EigMin=1.00D-04
 Number of steps in this run=     65 maximum allowed number of steps=    100.
 Search for a saddle point of order  1.
 GradGradGradGradGradGradGradGradGradGradGradGradGradGradGradGradGradGrad

                          Input orientation:                          
 ---------------------------------------------------------------------
 Center     Atomic      Atomic             Coordinates (Angstroms)
 Number     Number       Type             X           Y           Z
 ---------------------------------------------------------------------
      1          7           0       -0.838582   -0.802797   -0.001069
      2          7           0       -0.356276    0.424842    0.000365
      3          6           0       -1.447183    1.187316    0.001156
      4          6           0       -2.571441    0.344353    0.000256
      5          7           0       -2.149394   -0.918534   -0.001079
      6          1           0       -1.375064    2.263546    0.002172
      7          1           0       -3.623922    0.580211    0.000572
      8          1           0        0.277169   -1.718321    0.085760
      9          6           0        1.279438    0.016900   -0.157941
     10          8           0        1.960952    1.163053   -0.067766
     11          8           0        1.670254   -1.144670   -0.085489
 ---------------------------------------------------------------------
                    Distance matrix (angstroms):
                    1          2          3          4          5
     1  N    0.000000
     2  N    1.318984   0.000000
     3  C    2.081093   1.330957   0.000000
     4  C    2.078161   2.216627   1.405185   0.000000
     5  N    1.315912   2.240521   2.219844   1.331544   0.000000
     6  H    3.112922   2.102086   1.078644   2.261553   3.274940
     7  H    3.109796   3.271338   2.259816   1.078585   2.102492
     8  H    1.445899   2.236447   3.379833   3.518027   2.556444
     9  C    2.276516   1.693233   2.971472   3.868013   3.557602
    10  O    3.421463   2.432929   3.408918   4.606244   4.607863
    11  O    2.533429   2.564676   3.894109   4.496279   3.827267
                    6          7          8          9         10
     6  H    0.000000
     7  H    2.809089   0.000000
     8  H    4.311859   4.528688   0.000000
     9  C    3.481298   4.938156   2.018645   0.000000
    10  O    3.513542   5.615621   3.340811   1.336510   0.000000
    11  O    4.571388   5.568745   1.516275   1.227694   2.326028
                   11
    11  O    0.000000
 Stoichiometry    C3H3N3O2
 Framework group  C1[X(C3H3N3O2)]
 Deg. of freedom    27
 Full point group                 C1      NOp   1
 Largest Abelian subgroup         C1      NOp   1
 Largest concise Abelian subgroup C1      NOp   1
                         Standard orientation:                         
 ---------------------------------------------------------------------
 Center     Atomic      Atomic             Coordinates (Angstroms)
 Number     Number       Type             X           Y           Z
 ---------------------------------------------------------------------
      1          7           0        0.569069   -0.830259   -0.022221
      2          7           0        0.090867    0.398931   -0.033751
      3          6           0        1.183912    1.157880   -0.007365
      4          6           0        2.305120    0.311292    0.019545
      5          7           0        1.879124   -0.950227    0.009179
      6          1           0        1.115282    2.234338   -0.008795
      7          1           0        3.358053    0.543751    0.044836
      8          1           0       -0.547194   -1.742076   -0.136987
      9          6           0       -1.549479   -0.003909    0.084662
     10          8           0       -2.224956    1.144540   -0.020475
     11          8           0       -1.942153   -1.164128    0.001406
 ---------------------------------------------------------------------
 Rotational constants (GHZ):           5.4457618           1.5990047           1.2369265
 Standard basis: 6-31+G(d,p) (6D, 7F)
 There are   167 symmetry adapted cartesian basis functions of A   symmetry.
 There are   167 symmetry adapted basis functions of A   symmetry.
   167 basis functions,   277 primitive gaussians,   167 cartesian basis functions
    29 alpha electrons       29 beta electrons
       nuclear repulsion energy       353.0636479167 Hartrees.
 NAtoms=   11 NActive=   11 NUniq=   11 SFac= 1.00D+00 NAtFMM=   60 NAOKFM=F Big=F
 Integral buffers will be    131072 words long.
 Raffenetti 2 integral format.
 Two-electron integral symmetry is turned on.
 Force inversion solution in PCM.
 ------------------------------------------------------------------------------
 Polarizable Continuum Model (PCM)
 =================================
 Model                : PCM.
 Atomic radii         : SMD-Coulomb.
 Polarization charges : Total charges.
 Charge compensation  : None.
 Solution method      : Matrix inversion.
 Cavity type          : VdW (van der Waals Surface) (Alpha=1.000).
 Cavity algorithm     : GePol (No added spheres)
                        Default sphere list used, NSphG=   11.
                        Lebedev-Laikov grids with approx.  5.0 points / Ang**2.
                        Smoothing algorithm: York/Karplus (Gamma=1.0000).
                        Polarization charges: spherical gaussians, with
                                              point-specific exponents (IZeta= 3).
                        Self-potential: point-specific (ISelfS= 7).
                        Self-field    : sphere-specific E.n sum rule (ISelfD= 2).
 1st derivatives      : Analytical E(r).r(x)/FMM algorithm (CHGder, D1EAlg=3).
                        Cavity 1st derivative terms included.
 2nd derivatives      : Analytical E(r).r(xy)/FMM algorithm (CHGder, D2EAlg=3).
                        Cavity 2nd derivative terms included.
 Solvent              : Water, Eps=  78.355300 Eps(inf)=   1.777849
 ------------------------------------------------------------------------------
 Spheres list:
 ISph  on   Nord     Re0    Alpha      Xe            Ye            Ze
    1   N      1    1.8900  1.000      0.569069     -0.830259     -0.022221
    2   N      2    1.8900  1.000      0.090867      0.398931     -0.033751
    3   C      3    1.8500  1.000      1.183912      1.157880     -0.007365
    4   C      4    1.8500  1.000      2.305120      0.311292      0.019545
    5   N      5    1.8900  1.000      1.879124     -0.950227      0.009179
    6   H      6    1.2000  1.000      1.115282      2.234338     -0.008795
    7   H      7    1.2000  1.000      3.358053      0.543751      0.044836
    8   H      8    1.2000  1.000     -0.547194     -1.742076     -0.136987
    9   C      9    1.8500  1.000     -1.549479     -0.003909      0.084662
   10   O     10    1.5200  1.000     -2.224956      1.144540     -0.020475
   11   O     11    1.5200  1.000     -1.942153     -1.164128      0.001406
 ------------------------------------------------------------------------------
 ------------------------------------------------------------------------------
 Atomic radii for non-electrostatic terms: SMD-CDS.
 ------------------------------------------------------------------------------
 Nuclear repulsion after PCM non-electrostatic terms =      353.0699928054 Hartrees.
 One-electron integrals computed using PRISM.
 NBasis=   167 RedAO= T EigKep=  2.73D-05  NBF=   167
 NBsUse=   167 1.00D-06 EigRej= -1.00D+00 NBFU=   167
 ExpMin= 4.38D-02 ExpMax= 5.48D+03 ExpMxC= 8.25D+02 IAcc=3 IRadAn=         5 AccDes= 0.00D+00
 Harris functional with IExCor= 1009 and IRadAn=       5 diagonalized for initial guess.
 HarFok:  IExCor= 1009 AccDes= 0.00D+00 IRadAn=         5 IDoV= 1 UseB2=F ITyADJ=14
 ICtDFT=  3500011 ScaDFX=  1.000000  1.000000  1.000000  1.000000
 FoFCou: FMM=F IPFlag=           0 FMFlag=      100000 FMFlg1=           0
         NFxFlg=           0 DoJE=T BraDBF=F KetDBF=T FulRan=T
         wScrn=  0.000000 ICntrl=       500 IOpCl=  0 I1Cent=   200000004 NGrid=           0
         NMat0=    1 NMatS0=      1 NMatT0=    0 NMatD0=    1 NMtDS0=    0 NMtDT0=    0
 Petite list used in FoFCou.
 Keep R1 ints in memory in canonical form, NReq=118249495.
 Requested convergence on RMS density matrix=1.00D-08 within 128 cycles.
 Requested convergence on MAX density matrix=1.00D-06.
 Requested convergence on             energy=1.00D-06.
 No special actions if energy rises.
 Inv3:  Mode=1 IEnd=     3054243.
 Iteration    1 A*A^-1 deviation from unit magnitude is 2.78D-15 for    368.
 Iteration    1 A*A^-1 deviation from orthogonality  is 2.95D-15 for    602     58.
 Iteration    1 A^-1*A deviation from unit magnitude is 2.66D-15 for    251.
 Iteration    1 A^-1*A deviation from orthogonality  is 1.69D-15 for    365      7.
 Error on total polarization charges =  0.03646
 SCF Done:  E(RM062X) =  -430.554777390     A.U. after   15 cycles
            NFock= 15  Conv=0.58D-08     -V/T= 2.0098
 SMD-CDS (non-electrostatic) energy       (kcal/mol) =       3.98
 (included in total energy above)
 DoSCS=F DFT=T ScalE2(SS,OS)=  1.000000  1.000000
 Range of M.O.s used for correlation:     1   167
 NBasis=   167 NAE=    29 NBE=    29 NFC=     0 NFV=     0
 NROrb=    167 NOA=    29 NOB=    29 NVA=   138 NVB=   138

 **** Warning!!: The largest alpha MO coefficient is  0.70615732D+02

 Symmetrizing basis deriv contribution to polar:
 IMax=3 JMax=2 DiffMx= 0.00D+00
 G2DrvN: will do    12 centers at a time, making    1 passes.
 Calling FoFCou, ICntrl=  3107 FMM=F I1Cent=   0 AccDes= 0.00D+00.
 NEqPCM:  Using equilibrium solvation (IEInf=0, Eps=  78.3553, EpsInf=   1.7778)
 G2PCM: DoFxE=T DoFxN=T DoGrad=T DoDP/DQ/DG/TGxP=FFFF NFrqRd=   0 IEInf=0 SqF1=F DoCFld=F IF1Alg=4.
 End of G2Drv F.D. properties file   721 does not exist.
 End of G2Drv F.D. properties file   722 does not exist.
 End of G2Drv F.D. properties file   788 does not exist.
          IDoAtm=11111111111
 NEqPCM:  Using equilibrium solvation (IEInf=0, Eps=  78.3553, EpsInf=   1.7778)
          Differentiating once with respect to nuclear coordinates.
 Keep R1 ints in memory in canonical form, NReq=118190351.
          There are    36 degrees of freedom in the 1st order CPHF.  IDoFFX=6 NUNeed=     0.
     30 vectors produced by pass  0 Test12= 1.11D-14 2.78D-09 XBig12= 1.81D-01 7.88D-02.
 AX will form    30 AO Fock derivatives at one time.
     30 vectors produced by pass  1 Test12= 1.11D-14 2.78D-09 XBig12= 2.47D-02 3.90D-02.
     30 vectors produced by pass  2 Test12= 1.11D-14 2.78D-09 XBig12= 5.74D-04 3.93D-03.
     30 vectors produced by pass  3 Test12= 1.11D-14 2.78D-09 XBig12= 6.23D-06 3.08D-04.
     30 vectors produced by pass  4 Test12= 1.11D-14 2.78D-09 XBig12= 5.88D-08 2.87D-05.
     30 vectors produced by pass  5 Test12= 1.11D-14 2.78D-09 XBig12= 3.45D-10 2.77D-06.
     28 vectors produced by pass  6 Test12= 1.11D-14 2.78D-09 XBig12= 1.61D-12 2.52D-07.
     10 vectors produced by pass  7 Test12= 1.11D-14 2.78D-09 XBig12= 6.15D-15 1.18D-08.
 InvSVY:  IOpt=1 It=  1 EMax= 1.11D-15
 Solved reduced A of dimension   218 with    30 vectors.
 End of Minotr F.D. properties file   721 does not exist.
 End of Minotr F.D. properties file   722 does not exist.
 End of Minotr F.D. properties file   788 does not exist.

 **********************************************************************

            Population analysis using the SCF density.

 **********************************************************************

 Orbital symmetries:
       Occupied  (A) (A) (A) (A) (A) (A) (A) (A) (A) (A) (A) (A)
                 (A) (A) (A) (A) (A) (A) (A) (A) (A) (A) (A) (A)
                 (A) (A) (A) (A) (A)
       Virtual   (A) (A) (A) (A) (A) (A) (A) (A) (A) (A) (A) (A)
                 (A) (A) (A) (A) (A) (A) (A) (A) (A) (A) (A) (A)
                 (A) (A) (A) (A) (A) (A) (A) (A) (A) (A) (A) (A)
                 (A) (A) (A) (A) (A) (A) (A) (A) (A) (A) (A) (A)
                 (A) (A) (A) (A) (A) (A) (A) (A) (A) (A) (A) (A)
                 (A) (A) (A) (A) (A) (A) (A) (A) (A) (A) (A) (A)
                 (A) (A) (A) (A) (A) (A) (A) (A) (A) (A) (A) (A)
                 (A) (A) (A) (A) (A) (A) (A) (A) (A) (A) (A) (A)
                 (A) (A) (A) (A) (A) (A) (A) (A) (A) (A) (A) (A)
                 (A) (A) (A) (A) (A) (A) (A) (A) (A) (A) (A) (A)
                 (A) (A) (A) (A) (A) (A) (A) (A) (A) (A) (A) (A)
                 (A) (A) (A) (A) (A) (A)
 The electronic state is 1-A.
 Alpha  occ. eigenvalues --  -19.72633 -19.65903 -14.89903 -14.89078 -14.83708
 Alpha  occ. eigenvalues --  -10.77809 -10.62599 -10.60276  -1.28029  -1.24672
 Alpha  occ. eigenvalues --   -1.11682  -1.05581  -0.93692  -0.77241  -0.72731
 Alpha  occ. eigenvalues --   -0.68871  -0.65863  -0.60229  -0.56924  -0.56439
 Alpha  occ. eigenvalues --   -0.54448  -0.53485  -0.50426  -0.43955  -0.40954
 Alpha  occ. eigenvalues --   -0.40465  -0.38522  -0.37734  -0.34776
 Alpha virt. eigenvalues --   -0.02880   0.00835   0.02382   0.03628   0.03782
 Alpha virt. eigenvalues --    0.04141   0.04917   0.05713   0.06478   0.06682
 Alpha virt. eigenvalues --    0.07779   0.09015   0.09552   0.11191   0.12175
 Alpha virt. eigenvalues --    0.12697   0.14740   0.16722   0.17329   0.19165
 Alpha virt. eigenvalues --    0.20398   0.20596   0.22270   0.23006   0.23272
 Alpha virt. eigenvalues --    0.24755   0.25392   0.26295   0.27219   0.27797
 Alpha virt. eigenvalues --    0.28556   0.29129   0.29340   0.31117   0.31964
 Alpha virt. eigenvalues --    0.32707   0.33604   0.34514   0.36355   0.37942
 Alpha virt. eigenvalues --    0.40165   0.43765   0.45650   0.49758   0.51457
 Alpha virt. eigenvalues --    0.57709   0.70219   0.72841   0.73660   0.76675
 Alpha virt. eigenvalues --    0.77538   0.84999   0.86980   0.89025   0.91004
 Alpha virt. eigenvalues --    0.92058   0.93412   0.95134   0.96805   0.97174
 Alpha virt. eigenvalues --    0.99819   1.00809   1.06702   1.09985   1.13232
 Alpha virt. eigenvalues --    1.18033   1.20344   1.23204   1.24675   1.26272
 Alpha virt. eigenvalues --    1.29729   1.30497   1.31877   1.33645   1.34748
 Alpha virt. eigenvalues --    1.35703   1.38451   1.39776   1.41585   1.46286
 Alpha virt. eigenvalues --    1.48765   1.51345   1.53360   1.54359   1.57692
 Alpha virt. eigenvalues --    1.59667   1.63908   1.68421   1.73396   1.79655
 Alpha virt. eigenvalues --    1.81214   1.87918   1.88598   1.89735   1.91515
 Alpha virt. eigenvalues --    1.94359   2.01962   2.03045   2.07418   2.07596
 Alpha virt. eigenvalues --    2.16116   2.20650   2.21414   2.26409   2.30016
 Alpha virt. eigenvalues --    2.35097   2.35620   2.37031   2.38382   2.49485
 Alpha virt. eigenvalues --    2.51031   2.51609   2.56276   2.59686   2.62258
 Alpha virt. eigenvalues --    2.66999   2.71721   2.72394   2.73086   2.81021
 Alpha virt. eigenvalues --    2.89310   2.91207   2.94480   3.04630   3.07485
 Alpha virt. eigenvalues --    3.11886   3.15478   3.26773   3.31015   3.70704
 Alpha virt. eigenvalues --    3.96818   4.13701   4.16934   4.20910   4.42427
 Alpha virt. eigenvalues --    4.45088   4.54298   4.64987
          Condensed to atoms (all electrons):
               1          2          3          4          5          6
     1  N    7.708807   0.114713  -0.081830   0.103061  -0.853284   0.009763
     2  N    0.114713   6.621438   0.318444  -0.050539   0.104387  -0.040687
     3  C   -0.081830   0.318444   5.442464   0.193013   0.007150   0.385324
     4  C    0.103061  -0.050539   0.193013   5.326907   0.189126  -0.006926
     5  N   -0.853284   0.104387   0.007150   0.189126   7.797575  -0.004128
     6  H    0.009763  -0.040687   0.385324  -0.006926  -0.004128   0.398820
     7  H    0.007311  -0.007853  -0.003886   0.379273  -0.040334   0.000219
     8  H    0.149411  -0.004867  -0.006019   0.004470   0.023200  -0.000008
     9  C    0.057115  -0.015537  -0.056251  -0.009047  -0.009951  -0.001909
    10  O   -0.007847  -0.026098  -0.051174   0.018683  -0.011853  -0.000471
    11  O    0.029998  -0.110716  -0.007752   0.003252   0.009899  -0.000103
               7          8          9         10         11
     1  N    0.007311   0.149411   0.057115  -0.007847   0.029998
     2  N   -0.007853  -0.004867  -0.015537  -0.026098  -0.110716
     3  C   -0.003886  -0.006019  -0.056251  -0.051174  -0.007752
     4  C    0.379273   0.004470  -0.009047   0.018683   0.003252
     5  N   -0.040334   0.023200  -0.009951  -0.011853   0.009899
     6  H    0.000219  -0.000008  -0.001909  -0.000471  -0.000103
     7  H    0.416135  -0.000011  -0.000230  -0.000019   0.000016
     8  H   -0.000011   0.267729   0.017796   0.001086   0.052619
     9  C   -0.000230   0.017796   4.555898   0.446773   0.343368
    10  O   -0.000019   0.001086   0.446773   8.383698  -0.105166
    11  O    0.000016   0.052619   0.343368  -0.105166   8.170586
 Mulliken charges:
               1
     1  N   -0.237219
     2  N    0.097316
     3  C   -0.139482
     4  C   -0.151271
     5  N   -0.211786
     6  H    0.260106
     7  H    0.249380
     8  H    0.494594
     9  C    0.671975
    10  O   -0.647612
    11  O   -0.386002
 Sum of Mulliken charges =  -0.00000
 Mulliken charges with hydrogens summed into heavy atoms:
               1
     1  N    0.257375
     2  N    0.097316
     3  C    0.120624
     4  C    0.098109
     5  N   -0.211786
     9  C    0.671975
    10  O   -0.647612
    11  O   -0.386002
 APT charges:
               1
     1  N   -0.529127
     2  N   -0.231476
     3  C   -0.449761
     4  C   -0.468742
     5  N   -0.005292
     6  H    0.620660
     7  H    0.846934
     8  H    0.615067
     9  C    0.119286
    10  O   -0.394990
    11  O   -0.122559
 Sum of APT charges =  -0.00000
 APT charges with hydrogens summed into heavy atoms:
               1
     1  N    0.085940
     2  N   -0.231476
     3  C    0.170899
     4  C    0.378192
     5  N   -0.005292
     9  C    0.119286
    10  O   -0.394990
    11  O   -0.122559
 Electronic spatial extent (au):  <R**2>=            875.9605
 Charge=             -0.0000 electrons
 Dipole moment (field-independent basis, Debye):
    X=              6.2818    Y=             -0.3362    Z=              0.0339  Tot=              6.2909
 Quadrupole moment (field-independent basis, Debye-Ang):
   XX=            -55.1092   YY=            -44.7299   ZZ=            -45.9119
   XY=             12.4082   XZ=             -0.1323   YZ=              0.5850
 Traceless Quadrupole moment (field-independent basis, Debye-Ang):
   XX=             -6.5255   YY=              3.8537   ZZ=              2.6718
   XY=             12.4082   XZ=             -0.1323   YZ=              0.5850
 Octapole moment (field-independent basis, Debye-Ang**2):
  XXX=             52.4823  YYY=             -0.5896  ZZZ=             -0.1157  XYY=              6.8982
  XXY=              3.2511  XXZ=              0.8462  XZZ=             -5.2535  YZZ=             -1.8642
  YYZ=             -1.3953  XYZ=             -0.2400
 Hexadecapole moment (field-independent basis, Debye-Ang**3):
 XXXX=           -813.2668 YYYY=           -239.6271 ZZZZ=            -44.6339 XXXY=             66.5087
 XXXZ=              1.4950 YYYX=             38.6693 YYYZ=              1.9445 ZZZX=              0.0028
 ZZZY=              0.1678 XXYY=           -213.7908 XXZZ=           -147.3296 YYZZ=            -55.0784
 XXYZ=              0.4123 YYXZ=              1.1683 ZZXY=              1.4810
 N-N= 3.530699928054D+02 E-N=-1.710730581696D+03  KE= 4.263662875258D+02
  Exact polarizability:   0.000   0.000   0.000   0.000   0.000   0.000
 Approx polarizability:  99.876  -0.492  97.868   1.517  -0.440  44.631
 D2PCM: PCM CHGder 2nd derivatives, FixD1E=F FixD2E=F DoIter=F DoCFld=F I1PDM=0
 Calling FoFJK, ICntrl=    100147 FMM=F ISym2X=0 I1Cent= 0 IOpClX= 0 NMat=1 NMatS=1 NMatT=0.
 ***** Axes restored to original set *****
 -------------------------------------------------------------------
 Center     Atomic                   Forces (Hartrees/Bohr)
 Number     Number              X              Y              Z
 -------------------------------------------------------------------
      1        7           0.023584755   -0.087072849    0.006459132
      2        7           0.009808530   -0.085744211   -0.008002731
      3        6          -0.012193982    0.040301449   -0.003406919
      4        6           0.011445805    0.016994897    0.000514084
      5        7           0.036684166    0.001349731    0.002395329
      6        1          -0.001738600    0.000958112   -0.000494140
      7        1           0.000827633    0.004530315    0.000167888
      8        1          -0.034685447    0.050165147   -0.010086304
      9        6           0.086573674    0.161624575    0.038838296
     10        8          -0.059202861   -0.101724696   -0.020325317
     11        8          -0.061103672   -0.001382471   -0.006059318
 -------------------------------------------------------------------
 Cartesian Forces:  Max     0.161624575 RMS     0.048072182
 FormGI is forming the generalized inverse of G from B-inverse, IUseBI=4.

 GradGradGradGradGradGradGradGradGradGradGradGradGradGradGradGradGradGrad
 Berny optimization.
 Internal  Forces:  Max     0.118800704 RMS     0.024297949
 Search for a saddle point.
 Step number   1 out of a maximum of   65
 All quantities printed in internal units (Hartrees-Bohrs-Radians)
 Swapping is turned off.
 Second derivative matrix not updated -- analytic derivatives used.
 ITU=  0
     Eigenvalues ---   -0.08010  -0.01195   0.00283   0.00586   0.00908
     Eigenvalues ---    0.01371   0.02625   0.03373   0.03849   0.05425
     Eigenvalues ---    0.06326   0.10435   0.10785   0.11643   0.14266
     Eigenvalues ---    0.21890   0.23126   0.24435   0.29487   0.34632
     Eigenvalues ---    0.38636   0.38875   0.40340   0.43081   0.51469
     Eigenvalues ---    0.56303   0.69031
 Eigenvectors required to have negative eigenvalues:
                          R10       R3        R5        A3        A2
   1                   -0.65229   0.62145  -0.26785   0.19800  -0.16051
                          A17       R12       A18       A15       A6
   1                   -0.11476   0.09287   0.09195   0.07204  -0.06817
 RFO step:  Lambda0=2.833777774D-03 Lambda=-1.19119338D-01.
 Linear search not attempted -- option 19 set.
 Maximum step size (   0.300) exceeded in Quadratic search.
    -- Step size scaled by   0.252
 Iteration  1 RMS(Cart)=  0.04946059 RMS(Int)=  0.00478935
 Iteration  2 RMS(Cart)=  0.00645946 RMS(Int)=  0.00075973
 Iteration  3 RMS(Cart)=  0.00001005 RMS(Int)=  0.00075966
 Iteration  4 RMS(Cart)=  0.00000003 RMS(Int)=  0.00075966
 Variable       Old X    -DE/DX   Delta X   Delta X   Delta X     New X
                                 (Linear)    (Quad)   (Total)
    R1        2.49252   0.00839   0.00000   0.00321   0.00357   2.49609
    R2        2.48671  -0.02773   0.00000  -0.01982  -0.01981   2.46691
    R3        2.73235  -0.07515   0.00000  -0.09586  -0.09558   2.63677
    R4        2.51514   0.01626   0.00000   0.00562   0.00552   2.52066
    R5        3.19975  -0.03086   0.00000  -0.22855  -0.22842   2.97133
    R6        2.65541  -0.01866   0.00000  -0.01094  -0.01087   2.64454
    R7        2.03834   0.00084   0.00000   0.00009   0.00009   2.03844
    R8        2.51625   0.02360   0.00000   0.01373   0.01387   2.53012
    R9        2.03823   0.00018   0.00000  -0.00035  -0.00035   2.03788
   R10        2.86534  -0.01265   0.00000  -0.00482  -0.00525   2.86009
   R11        2.52564  -0.11880   0.00000  -0.04393  -0.04393   2.48170
   R12        2.32001  -0.00795   0.00000   0.02153   0.02107   2.34107
    A1        2.03321  -0.01655   0.00000  -0.01870  -0.01901   2.01420
    A2        1.88294  -0.00702   0.00000  -0.03950  -0.03879   1.84415
    A3        2.36454   0.02374   0.00000   0.05842   0.05799   2.42253
    A4        1.80646   0.01909   0.00000   0.02341   0.02365   1.83011
    A5        1.70006   0.02369   0.00000   0.07148   0.07279   1.77284
    A6        2.76487  -0.04392   0.00000  -0.09434  -0.09540   2.66947
    A7        1.88821  -0.01781   0.00000  -0.01991  -0.02004   1.86817
    A8        2.11390   0.01073   0.00000   0.00870   0.00876   2.12265
    A9        2.28108   0.00708   0.00000   0.01120   0.01126   2.29234
   A10        1.89164   0.00443   0.00000   0.00578   0.00588   1.89752
   A11        2.27777  -0.00691   0.00000  -0.00643  -0.00648   2.27129
   A12        2.11377   0.00248   0.00000   0.00065   0.00060   2.11437
   A13        1.80525   0.01085   0.00000   0.00941   0.00950   1.81476
   A14        2.05176  -0.00077   0.00000  -0.01508  -0.01509   2.03667
   A15        1.85426   0.02661   0.00000   0.05501   0.05515   1.90941
   A16        2.12934  -0.04822   0.00000  -0.02937  -0.02976   2.09958
   A17        2.27192   0.02331   0.00000  -0.02035  -0.02015   2.25177
   A18        1.64301   0.03237   0.00000   0.01357   0.01204   1.65505
    D1       -0.00018  -0.00512   0.00000  -0.00635  -0.00494  -0.00513
    D2       -3.04756   0.00509   0.00000   0.00362   0.00202  -3.04554
    D3       -3.07775  -0.00836   0.00000  -0.01182  -0.00995  -3.08770
    D4        0.15806   0.00185   0.00000  -0.00185  -0.00298   0.15507
    D5        0.00018   0.00387   0.00000   0.00517   0.00403   0.00421
    D6        3.05482   0.00598   0.00000   0.00632   0.00464   3.05946
    D7       -0.18026   0.00035   0.00000   0.00438   0.00540  -0.17485
    D8        3.04310  -0.00113   0.00000   0.00302   0.00463   3.04772
    D9        0.00011   0.00404   0.00000   0.00465   0.00358   0.00369
   D10       -3.14136   0.00104   0.00000  -0.00247  -0.00273   3.13910
   D11        2.88532   0.00562   0.00000   0.04195   0.04063   2.92595
   D12       -0.25615   0.00262   0.00000   0.03483   0.03432  -0.22183
   D13       -3.05680  -0.00647   0.00000  -0.00181  -0.00201  -3.05881
   D14       -0.14224   0.00530   0.00000   0.01793   0.01878  -0.12347
   D15        0.33607  -0.00840   0.00000  -0.03740  -0.03694   0.29914
   D16       -3.03255   0.00337   0.00000  -0.01765  -0.01615  -3.04870
   D17       -0.00001  -0.00203   0.00000  -0.00191  -0.00139  -0.00140
   D18        3.14150  -0.00220   0.00000  -0.00316  -0.00260   3.13890
   D19        3.14144   0.00136   0.00000   0.00613   0.00576  -3.13598
   D20       -0.00024   0.00119   0.00000   0.00488   0.00456   0.00432
   D21       -0.00009  -0.00095   0.00000  -0.00174  -0.00144  -0.00154
   D22        3.14158  -0.00079   0.00000  -0.00063  -0.00036   3.14121
   D23        0.07649   0.00387   0.00000   0.01431   0.01379   0.09028
   D24        0.03855  -0.00415   0.00000  -0.01723  -0.01754   0.02101
   D25        2.89341   0.00736   0.00000   0.01776   0.01794   2.91136
         Item               Value     Threshold  Converged?
 Maximum Force            0.118801     0.000450     NO 
 RMS     Force            0.024298     0.000300     NO 
 Maximum Displacement     0.174510     0.001800     NO 
 RMS     Displacement     0.054678     0.001200     NO 
 Predicted change in Energy=-3.219890D-02
 GradGradGradGradGradGradGradGradGradGradGradGradGradGradGradGradGradGrad

                          Input orientation:                          
 ---------------------------------------------------------------------
 Center     Atomic      Atomic             Coordinates (Angstroms)
 Number     Number       Type             X           Y           Z
 ---------------------------------------------------------------------
      1          7           0       -0.838818   -0.860741    0.003960
      2          7           0       -0.336831    0.361027    0.002105
      3          6           0       -1.399380    1.167363   -0.004426
      4          6           0       -2.534879    0.349413   -0.001294
      5          7           0       -2.142376   -0.930627    0.005257
      6          1           0       -1.294596    2.240956   -0.005045
      7          1           0       -3.580801    0.612082   -0.002303
      8          1           0        0.258643   -1.718773    0.083158
      9          6           0        1.201176    0.070011   -0.146731
     10          8           0        1.868605    1.197988   -0.063911
     11          8           0        1.625209   -1.092800   -0.093833
 ---------------------------------------------------------------------
                    Distance matrix (angstroms):
                    1          2          3          4          5
     1  N    0.000000
     2  N    1.320875   0.000000
     3  C    2.104164   1.333878   0.000000
     4  C    2.083536   2.198081   1.399432   0.000000
     5  N    1.305431   2.219994   2.225691   1.338882   0.000000
     6  H    3.135018   2.109857   1.078694   2.261913   3.282952
     7  H    3.112510   3.253673   2.250986   1.078401   2.109283
     8  H    1.395318   2.164885   3.329639   3.476822   2.528268
     9  C    2.247350   1.572358   2.826186   3.749310   3.493382
    10  O    3.401928   2.359833   3.268670   4.484938   4.541339
    11  O    2.476862   2.443853   3.776834   4.403961   3.772376
                    6          7          8          9         10
     6  H    0.000000
     7  H    2.807129   0.000000
     8  H    4.254384   4.492385   0.000000
     9  C    3.310884   4.814770   2.034936   0.000000
    10  O    3.331229   5.481160   3.334832   1.313261   0.000000
    11  O    4.432502   5.478827   1.513496   1.238842   2.303876
                   11
    11  O    0.000000
 Stoichiometry    C3H3N3O2
 Framework group  C1[X(C3H3N3O2)]
 Deg. of freedom    27
 Full point group                 C1      NOp   1
 Largest Abelian subgroup         C1      NOp   1
 Largest concise Abelian subgroup C1      NOp   1
                         Standard orientation:                         
 ---------------------------------------------------------------------
 Center     Atomic      Atomic             Coordinates (Angstroms)
 Number     Number       Type             X           Y           Z
 ---------------------------------------------------------------------
      1          7           0        0.576475   -0.874883   -0.025282
      2          7           0        0.050068    0.336522   -0.035527
      3          6           0        1.095670    1.164097   -0.002860
      4          6           0        2.247162    0.369193    0.021680
      5          7           0        1.880819   -0.918491    0.005322
      6          1           0        0.969283    2.235360   -0.004638
      7          1           0        3.287239    0.652879    0.048335
      8          1           0       -0.501201   -1.754800   -0.131458
      9          6           0       -1.484942    0.014482    0.075567
     10          8           0       -2.172745    1.128837   -0.023392
     11          8           0       -1.884029   -1.156601    0.012122
 ---------------------------------------------------------------------
 Rotational constants (GHZ):           5.4721065           1.6834597           1.2882608
 Standard basis: 6-31+G(d,p) (6D, 7F)
 There are   167 symmetry adapted cartesian basis functions of A   symmetry.
 There are   167 symmetry adapted basis functions of A   symmetry.
   167 basis functions,   277 primitive gaussians,   167 cartesian basis functions
    29 alpha electrons       29 beta electrons
       nuclear repulsion energy       357.7934625137 Hartrees.
 NAtoms=   11 NActive=   11 NUniq=   11 SFac= 1.00D+00 NAtFMM=   60 NAOKFM=F Big=F
 Integral buffers will be    131072 words long.
 Raffenetti 2 integral format.
 Two-electron integral symmetry is turned on.
 ------------------------------------------------------------------------------
 Polarizable Continuum Model (PCM)
 =================================
 Model                : PCM.
 Atomic radii         : SMD-Coulomb.
 Polarization charges : Total charges.
 Charge compensation  : None.
 Solution method      : Matrix inversion.
 Cavity type          : VdW (van der Waals Surface) (Alpha=1.000).
 Cavity algorithm     : GePol (No added spheres)
                        Default sphere list used, NSphG=   11.
                        Lebedev-Laikov grids with approx.  5.0 points / Ang**2.
                        Smoothing algorithm: York/Karplus (Gamma=1.0000).
                        Polarization charges: spherical gaussians, with
                                              point-specific exponents (IZeta= 3).
                        Self-potential: point-specific (ISelfS= 7).
                        Self-field    : sphere-specific E.n sum rule (ISelfD= 2).
 1st derivatives      : Analytical E(r).r(x)/FMM algorithm (CHGder, D1EAlg=3).
                        Cavity 1st derivative terms included.
 Solvent              : Water, Eps=  78.355300 Eps(inf)=   1.777849
 ------------------------------------------------------------------------------
 Spheres list:
 ISph  on   Nord     Re0    Alpha      Xe            Ye            Ze
    1   N      1    1.8900  1.000      0.576475     -0.874883     -0.025282
    2   N      2    1.8900  1.000      0.050068      0.336522     -0.035527
    3   C      3    1.8500  1.000      1.095670      1.164097     -0.002860
    4   C      4    1.8500  1.000      2.247162      0.369193      0.021680
    5   N      5    1.8900  1.000      1.880819     -0.918491      0.005322
    6   H      6    1.2000  1.000      0.969283      2.235360     -0.004638
    7   H      7    1.2000  1.000      3.287239      0.652879      0.048335
    8   H      8    1.2000  1.000     -0.501201     -1.754800     -0.131458
    9   C      9    1.8500  1.000     -1.484942      0.014482      0.075567
   10   O     10    1.5200  1.000     -2.172745      1.128837     -0.023392
   11   O     11    1.5200  1.000     -1.884029     -1.156601      0.012122
 ------------------------------------------------------------------------------
 ------------------------------------------------------------------------------
 Atomic radii for non-electrostatic terms: SMD-CDS.
 ------------------------------------------------------------------------------
 Nuclear repulsion after PCM non-electrostatic terms =      357.7999953985 Hartrees.
 One-electron integrals computed using PRISM.
 NBasis=   167 RedAO= T EigKep=  2.53D-05  NBF=   167
 NBsUse=   167 1.00D-06 EigRej= -1.00D+00 NBFU=   167
 Initial guess from the checkpoint file:  "/scratch/gongke2021/TS/Gau-32164.chk"
 B after Tr=     0.000000   -0.000000   -0.000000
         Rot=    0.999977    0.000988   -0.000130   -0.006675 Ang=   0.77 deg.
 ExpMin= 4.38D-02 ExpMax= 5.48D+03 ExpMxC= 8.25D+02 IAcc=2 IRadAn=         4 AccDes= 0.00D+00
 Harris functional with IExCor= 1009 and IRadAn=       4 diagonalized for initial guess.
 HarFok:  IExCor= 1009 AccDes= 0.00D+00 IRadAn=         4 IDoV= 1 UseB2=F ITyADJ=14
 ICtDFT=  3500011 ScaDFX=  1.000000  1.000000  1.000000  1.000000
 FoFCou: FMM=F IPFlag=           0 FMFlag=      100000 FMFlg1=           0
         NFxFlg=           0 DoJE=T BraDBF=F KetDBF=T FulRan=T
         wScrn=  0.000000 ICntrl=       500 IOpCl=  0 I1Cent=   200000004 NGrid=           0
         NMat0=    1 NMatS0=      1 NMatT0=    0 NMatD0=    1 NMtDS0=    0 NMtDT0=    0
 Petite list used in FoFCou.
 Keep R1 ints in memory in canonical form, NReq=118249495.
 Requested convergence on RMS density matrix=1.00D-08 within 128 cycles.
 Requested convergence on MAX density matrix=1.00D-06.
 Requested convergence on             energy=1.00D-06.
 No special actions if energy rises.
 Inv3:  Mode=1 IEnd=     3018027.
 Iteration    1 A*A^-1 deviation from unit magnitude is 3.33D-15 for    542.
 Iteration    1 A*A^-1 deviation from orthogonality  is 1.55D-15 for    840    383.
 Iteration    1 A^-1*A deviation from unit magnitude is 3.55D-15 for    568.
 Iteration    1 A^-1*A deviation from orthogonality  is 1.55D-15 for    805    546.
 Error on total polarization charges =  0.03667
 SCF Done:  E(RM062X) =  -430.586143580     A.U. after   13 cycles
            NFock= 13  Conv=0.70D-08     -V/T= 2.0095
 SMD-CDS (non-electrostatic) energy       (kcal/mol) =       4.10
 (included in total energy above)
 D1PCM: PCM CHGder 1st derivatives, ID1Alg=3 FixD1E=F DoIter=F DoCFld=F I1PDM=0.
 Calling FoFJK, ICntrl=      2127 FMM=F ISym2X=0 I1Cent= 0 IOpClX= 0 NMat=1 NMatS=1 NMatT=0.
 ***** Axes restored to original set *****
 -------------------------------------------------------------------
 Center     Atomic                   Forces (Hartrees/Bohr)
 Number     Number              X              Y              Z
 -------------------------------------------------------------------
      1        7           0.022310038   -0.074752085    0.006907650
      2        7           0.006746447   -0.074005812   -0.009601560
      3        6          -0.008173961    0.032975232   -0.002695415
      4        6           0.009385601    0.013196318    0.000645778
      5        7           0.029167518    0.001627330    0.002019805
      6        1          -0.001169970    0.000814826   -0.000728033
      7        1           0.000806288    0.003631950    0.000105001
      8        1          -0.030666014    0.047034831   -0.010383123
      9        6           0.069864965    0.138593561    0.036542097
     10        8          -0.047326817   -0.082108394   -0.017979274
     11        8          -0.050944095   -0.007007758   -0.004832925
 -------------------------------------------------------------------
 Cartesian Forces:  Max     0.138593561 RMS     0.040714681

 GradGradGradGradGradGradGradGradGradGradGradGradGradGradGradGradGradGrad
 Berny optimization.
 FormGI is forming the generalized inverse of G from B-inverse, IUseBI=4.
 Internal  Forces:  Max     0.095709882 RMS     0.020250477
 Search for a saddle point.
 Step number   2 out of a maximum of   65
 All quantities printed in internal units (Hartrees-Bohrs-Radians)
 Swapping is turned off.
 Update second derivatives using D2CorX and points    1    2
 ITU=  0  0
     Eigenvalues ---   -0.07844   0.00120   0.00401   0.00863   0.00944
     Eigenvalues ---    0.01375   0.02624   0.03382   0.04177   0.05416
     Eigenvalues ---    0.06323   0.10435   0.10784   0.11661   0.14666
     Eigenvalues ---    0.21915   0.23142   0.24483   0.29718   0.34630
     Eigenvalues ---    0.38636   0.38874   0.40339   0.43076   0.51466
     Eigenvalues ---    0.56301   0.69163
 Eigenvectors required to have negative eigenvalues:
                          R10       R3        R5        A3        A2
   1                   -0.66326   0.64327  -0.20228   0.19192  -0.15612
                          A17       A18       R12       A15       A6
   1                   -0.10408   0.09700   0.09054   0.06422  -0.04970
 RFO step:  Lambda0=3.767195354D-03 Lambda=-9.18835931D-02.
 Linear search not attempted -- option 19 set.
 Maximum step size (   0.300) exceeded in Quadratic search.
    -- Step size scaled by   0.437
 Iteration  1 RMS(Cart)=  0.03480679 RMS(Int)=  0.00124391
 Iteration  2 RMS(Cart)=  0.00145309 RMS(Int)=  0.00021505
 Iteration  3 RMS(Cart)=  0.00000105 RMS(Int)=  0.00021505
 Iteration  4 RMS(Cart)=  0.00000000 RMS(Int)=  0.00021505
 Variable       Old X    -DE/DX   Delta X   Delta X   Delta X     New X
                                 (Linear)    (Quad)   (Total)
    R1        2.49609   0.00684   0.00000  -0.00015  -0.00020   2.49589
    R2        2.46691  -0.02172   0.00000  -0.01653  -0.01654   2.45037
    R3        2.63677  -0.06607   0.00000  -0.09150  -0.09155   2.54522
    R4        2.52066   0.01285   0.00000   0.00786   0.00785   2.52851
    R5        2.97133  -0.02376   0.00000  -0.07719  -0.07715   2.89417
    R6        2.64454  -0.01491   0.00000  -0.01301  -0.01299   2.63155
    R7        2.03844   0.00070   0.00000   0.00022   0.00022   2.03866
    R8        2.53012   0.01887   0.00000   0.01570   0.01573   2.54585
    R9        2.03788   0.00010   0.00000  -0.00024  -0.00024   2.03764
   R10        2.86009  -0.01210   0.00000  -0.14872  -0.14874   2.71136
   R11        2.48170  -0.09571   0.00000  -0.12865  -0.12865   2.35305
   R12        2.34107  -0.00416   0.00000   0.02682   0.02687   2.36795
    A1        2.01420  -0.01419   0.00000  -0.02365  -0.02370   1.99050
    A2        1.84415  -0.00641   0.00000  -0.04843  -0.04852   1.79563
    A3        2.42253   0.02074   0.00000   0.07285   0.07292   2.49546
    A4        1.83011   0.01589   0.00000   0.02737   0.02742   1.85754
    A5        1.77284   0.02134   0.00000   0.04999   0.05018   1.82302
    A6        2.66947  -0.03782   0.00000  -0.07740  -0.07746   2.59201
    A7        1.86817  -0.01443   0.00000  -0.02039  -0.02042   1.84775
    A8        2.12265   0.00849   0.00000   0.00994   0.00994   2.13260
    A9        2.29234   0.00593   0.00000   0.01040   0.01040   2.30274
   A10        1.89752   0.00355   0.00000   0.00389   0.00390   1.90142
   A11        2.27129  -0.00557   0.00000  -0.00655  -0.00655   2.26474
   A12        2.11437   0.00202   0.00000   0.00265   0.00265   2.11702
   A13        1.81476   0.00916   0.00000   0.01274   0.01273   1.82749
   A14        2.03667   0.00233   0.00000   0.04764   0.04749   2.08416
   A15        1.90941   0.02373   0.00000   0.06537   0.06516   1.97458
   A16        2.09958  -0.04225   0.00000  -0.08894  -0.08901   2.01057
   A17        2.25177   0.02024   0.00000   0.03106   0.03095   2.28272
   A18        1.65505   0.02518   0.00000   0.04192   0.04197   1.69701
    D1       -0.00513  -0.00381   0.00000  -0.00788  -0.00774  -0.01287
    D2       -3.04554   0.00316   0.00000   0.00098  -0.00005  -3.04559
    D3       -3.08770  -0.00662   0.00000  -0.02088  -0.02024  -3.10794
    D4        0.15507   0.00035   0.00000  -0.01202  -0.01255   0.14252
    D5        0.00421   0.00280   0.00000   0.00543   0.00522   0.00943
    D6        3.05946   0.00471   0.00000   0.01609   0.01619   3.07565
    D7       -0.17485   0.00099   0.00000   0.00778   0.00769  -0.16716
    D8        3.04772  -0.00040   0.00000  -0.00241  -0.00270   3.04503
    D9        0.00369   0.00303   0.00000   0.00665   0.00662   0.01031
   D10        3.13910   0.00067   0.00000  -0.00060  -0.00055   3.13855
   D11        2.92595   0.00521   0.00000   0.02328   0.02314   2.94908
   D12       -0.22183   0.00285   0.00000   0.01604   0.01596  -0.20586
   D13       -3.05881  -0.00587   0.00000  -0.01982  -0.01976  -3.07857
   D14       -0.12347   0.00545   0.00000   0.02010   0.01988  -0.10359
   D15        0.29914  -0.00798   0.00000  -0.03557  -0.03524   0.26389
   D16       -3.04870   0.00334   0.00000   0.00435   0.00439  -3.04431
   D17       -0.00140  -0.00151   0.00000  -0.00374  -0.00370  -0.00510
   D18        3.13890  -0.00169   0.00000  -0.00456  -0.00450   3.13440
   D19       -3.13598   0.00117   0.00000   0.00450   0.00448  -3.13150
   D20        0.00432   0.00098   0.00000   0.00368   0.00368   0.00800
   D21       -0.00154  -0.00070   0.00000  -0.00085  -0.00077  -0.00231
   D22        3.14121  -0.00053   0.00000  -0.00010  -0.00004   3.14117
   D23        0.09028   0.00365   0.00000   0.00856   0.00880   0.09907
   D24        0.02101  -0.00400   0.00000  -0.01406  -0.01373   0.00728
   D25        2.91136   0.00782   0.00000   0.03435   0.03469   2.94605
         Item               Value     Threshold  Converged?
 Maximum Force            0.095710     0.000450     NO 
 RMS     Force            0.020250     0.000300     NO 
 Maximum Displacement     0.122669     0.001800     NO 
 RMS     Displacement     0.035369     0.001200     NO 
 Predicted change in Energy=-3.404734D-02
 GradGradGradGradGradGradGradGradGradGradGradGradGradGradGradGradGradGrad

                          Input orientation:                          
 ---------------------------------------------------------------------
 Center     Atomic      Atomic             Coordinates (Angstroms)
 Number     Number       Type             X           Y           Z
 ---------------------------------------------------------------------
      1          7           0       -0.833518   -0.900115    0.008893
      2          7           0       -0.333883    0.322504    0.010466
      3          6           0       -1.378643    1.158287   -0.006066
      4          6           0       -2.512765    0.350218   -0.003508
      5          7           0       -2.129544   -0.941282    0.007833
      6          1           0       -1.257128    2.230233   -0.005927
      7          1           0       -3.555409    0.625091   -0.007355
      8          1           0        0.266930   -1.674281    0.070075
      9          6           0        1.177354    0.117994   -0.130695
     10          8           0        1.822261    1.181723   -0.075447
     11          8           0        1.560296   -1.074472   -0.091333
 ---------------------------------------------------------------------
                    Distance matrix (angstroms):
                    1          2          3          4          5
     1  N    0.000000
     2  N    1.320770   0.000000
     3  C    2.129413   1.338032   0.000000
     4  C    2.093646   2.179102   1.392557   0.000000
     5  N    1.296681   2.195805   2.229851   1.347204   0.000000
     6  H    3.158915   2.119453   1.078812   2.260771   3.289348
     7  H    3.120129   3.235754   2.241118   1.078275   2.118217
     8  H    1.346871   2.086068   3.276759   3.439580   2.506841
     9  C    2.258237   1.531531   2.762401   3.699605   3.475174
    10  O    3.375548   2.322628   3.201742   4.414638   4.486742
    11  O    2.402246   2.355805   3.691861   4.315933   3.693574
                    6          7          8          9         10
     6  H    0.000000
     7  H    2.803316   0.000000
     8  H    4.192107   4.461320   0.000000
     9  C    3.225496   4.761449   2.020255   0.000000
    10  O    3.253743   5.406830   3.255303   1.245182   0.000000
    11  O    4.343529   5.391289   1.434789   1.253064   2.271408
                   11
    11  O    0.000000
 Stoichiometry    C3H3N3O2
 Framework group  C1[X(C3H3N3O2)]
 Deg. of freedom    27
 Full point group                 C1      NOp   1
 Largest Abelian subgroup         C1      NOp   1
 Largest concise Abelian subgroup C1      NOp   1
                         Standard orientation:                         
 ---------------------------------------------------------------------
 Center     Atomic      Atomic             Coordinates (Angstroms)
 Number     Number       Type             X           Y           Z
 ---------------------------------------------------------------------
      1          7           0        0.572791   -0.902618   -0.025441
      2          7           0        0.034880    0.303513   -0.043660
      3          6           0        1.051902    1.172085   -0.003949
      4          6           0        2.210758    0.400426    0.024539
      5          7           0        1.869039   -0.902615    0.008073
      6          1           0        0.896539    2.239629   -0.010791
      7          1           0        3.243749    0.708272    0.053439
      8          1           0       -0.500708   -1.711490   -0.111388
      9          6           0       -1.472181    0.051500    0.060478
     10          8           0       -2.148871    1.094068   -0.014476
     11          8           0       -1.816057   -1.152623    0.015667
 ---------------------------------------------------------------------
 Rotational constants (GHZ):           5.5281409           1.7434508           1.3262035
 Standard basis: 6-31+G(d,p) (6D, 7F)
 There are   167 symmetry adapted cartesian basis functions of A   symmetry.
 There are   167 symmetry adapted basis functions of A   symmetry.
   167 basis functions,   277 primitive gaussians,   167 cartesian basis functions
    29 alpha electrons       29 beta electrons
       nuclear repulsion energy       361.8370170290 Hartrees.
 NAtoms=   11 NActive=   11 NUniq=   11 SFac= 1.00D+00 NAtFMM=   60 NAOKFM=F Big=F
 Integral buffers will be    131072 words long.
 Raffenetti 2 integral format.
 Two-electron integral symmetry is turned on.
 ------------------------------------------------------------------------------
 Polarizable Continuum Model (PCM)
 =================================
 Model                : PCM.
 Atomic radii         : SMD-Coulomb.
 Polarization charges : Total charges.
 Charge compensation  : None.
 Solution method      : Matrix inversion.
 Cavity type          : VdW (van der Waals Surface) (Alpha=1.000).
 Cavity algorithm     : GePol (No added spheres)
                        Default sphere list used, NSphG=   11.
                        Lebedev-Laikov grids with approx.  5.0 points / Ang**2.
                        Smoothing algorithm: York/Karplus (Gamma=1.0000).
                        Polarization charges: spherical gaussians, with
                                              point-specific exponents (IZeta= 3).
                        Self-potential: point-specific (ISelfS= 7).
                        Self-field    : sphere-specific E.n sum rule (ISelfD= 2).
 1st derivatives      : Analytical E(r).r(x)/FMM algorithm (CHGder, D1EAlg=3).
                        Cavity 1st derivative terms included.
 Solvent              : Water, Eps=  78.355300 Eps(inf)=   1.777849
 ------------------------------------------------------------------------------
 Spheres list:
 ISph  on   Nord     Re0    Alpha      Xe            Ye            Ze
    1   N      1    1.8900  1.000      0.572791     -0.902618     -0.025441
    2   N      2    1.8900  1.000      0.034880      0.303513     -0.043660
    3   C      3    1.8500  1.000      1.051902      1.172085     -0.003949
    4   C      4    1.8500  1.000      2.210758      0.400426      0.024539
    5   N      5    1.8900  1.000      1.869039     -0.902615      0.008073
    6   H      6    1.2000  1.000      0.896539      2.239629     -0.010791
    7   H      7    1.2000  1.000      3.243749      0.708272      0.053439
    8   H      8    1.2000  1.000     -0.500708     -1.711490     -0.111388
    9   C      9    1.8500  1.000     -1.472181      0.051500      0.060478
   10   O     10    1.5200  1.000     -2.148871      1.094068     -0.014476
   11   O     11    1.5200  1.000     -1.816057     -1.152623      0.015667
 ------------------------------------------------------------------------------
 ------------------------------------------------------------------------------
 Atomic radii for non-electrostatic terms: SMD-CDS.
 ------------------------------------------------------------------------------
 Nuclear repulsion after PCM non-electrostatic terms =      361.8438644198 Hartrees.
 One-electron integrals computed using PRISM.
 NBasis=   167 RedAO= T EigKep=  2.38D-05  NBF=   167
 NBsUse=   167 1.00D-06 EigRej= -1.00D+00 NBFU=   167
 Initial guess from the checkpoint file:  "/scratch/gongke2021/TS/Gau-32164.chk"
 B after Tr=    -0.000000    0.000000    0.000000
         Rot=    0.999989    0.000744   -0.000050   -0.004587 Ang=   0.53 deg.
 ExpMin= 4.38D-02 ExpMax= 5.48D+03 ExpMxC= 8.25D+02 IAcc=2 IRadAn=         4 AccDes= 0.00D+00
 Harris functional with IExCor= 1009 and IRadAn=       4 diagonalized for initial guess.
 HarFok:  IExCor= 1009 AccDes= 0.00D+00 IRadAn=         4 IDoV= 1 UseB2=F ITyADJ=14
 ICtDFT=  3500011 ScaDFX=  1.000000  1.000000  1.000000  1.000000
 FoFCou: FMM=F IPFlag=           0 FMFlag=      100000 FMFlg1=           0
         NFxFlg=           0 DoJE=T BraDBF=F KetDBF=T FulRan=T
         wScrn=  0.000000 ICntrl=       500 IOpCl=  0 I1Cent=   200000004 NGrid=           0
         NMat0=    1 NMatS0=      1 NMatT0=    0 NMatD0=    1 NMtDS0=    0 NMtDT0=    0
 Petite list used in FoFCou.
 Keep R1 ints in memory in canonical form, NReq=118249495.
 Requested convergence on RMS density matrix=1.00D-08 within 128 cycles.
 Requested convergence on MAX density matrix=1.00D-06.
 Requested convergence on             energy=1.00D-06.
 No special actions if energy rises.
 Inv3:  Mode=1 IEnd=     2970075.
 Iteration    1 A*A^-1 deviation from unit magnitude is 3.55D-15 for    756.
 Iteration    1 A*A^-1 deviation from orthogonality  is 2.83D-15 for    636     51.
 Iteration    1 A^-1*A deviation from unit magnitude is 3.66D-15 for    195.
 Iteration    1 A^-1*A deviation from orthogonality  is 1.75D-15 for    551     60.
 Error on total polarization charges =  0.03578
 SCF Done:  E(RM062X) =  -430.617913155     A.U. after   13 cycles
            NFock= 13  Conv=0.64D-08     -V/T= 2.0089
 SMD-CDS (non-electrostatic) energy       (kcal/mol) =       4.30
 (included in total energy above)
 D1PCM: PCM CHGder 1st derivatives, ID1Alg=3 FixD1E=F DoIter=F DoCFld=F I1PDM=0.
 Calling FoFJK, ICntrl=      2127 FMM=F ISym2X=0 I1Cent= 0 IOpClX= 0 NMat=1 NMatS=1 NMatT=0.
 ***** Axes restored to original set *****
 -------------------------------------------------------------------
 Center     Atomic                   Forces (Hartrees/Bohr)
 Number     Number              X              Y              Z
 -------------------------------------------------------------------
      1        7           0.016924124   -0.052213921    0.006610937
      2        7           0.001415380   -0.051447786   -0.009812403
      3        6          -0.003480716    0.021493376   -0.001323427
      4        6           0.005431655    0.007812602    0.000675668
      5        7           0.017253135    0.002532631    0.001374732
      6        1          -0.000579594    0.000539737   -0.000799093
      7        1           0.000547241    0.002350338    0.000029683
      8        1          -0.018995532    0.037439326   -0.009874874
      9        6           0.035033576    0.074743080    0.029092039
     10        8          -0.017864999   -0.032640415   -0.012783632
     11        8          -0.035684270   -0.010608966   -0.003189631
 -------------------------------------------------------------------
 Cartesian Forces:  Max     0.074743080 RMS     0.024086849

 GradGradGradGradGradGradGradGradGradGradGradGradGradGradGradGradGradGrad
 Berny optimization.
 FormGI is forming the generalized inverse of G from B-inverse, IUseBI=4.
 Internal  Forces:  Max     0.046129318 RMS     0.011948860
 Search for a saddle point.
 Step number   3 out of a maximum of   65
 All quantities printed in internal units (Hartrees-Bohrs-Radians)
 Swapping is turned off.
 Update second derivatives using D2CorX and points    1    2    3
 ITU=  0  0  0
     Eigenvalues ---   -0.08125  -0.00273   0.00347   0.00743   0.00950
     Eigenvalues ---    0.01378   0.02621   0.03366   0.03839   0.05377
     Eigenvalues ---    0.06314   0.10433   0.10782   0.11603   0.15445
     Eigenvalues ---    0.21976   0.24080   0.25409   0.34619   0.35714
     Eigenvalues ---    0.38651   0.38893   0.40394   0.43494   0.51478
     Eigenvalues ---    0.56295   0.70186
 Eigenvectors required to have negative eigenvalues:
                          R10       R3        R5        A3        A2
   1                   -0.66698   0.62156  -0.22812   0.20355  -0.16363
                          A17       R12       A18       A15       A6
   1                   -0.10886   0.08861   0.08763   0.07239  -0.06441
 RFO step:  Lambda0=1.103971229D-03 Lambda=-4.55759828D-02.
 Linear search not attempted -- option 19 set.
 Maximum step size (   0.300) exceeded in Quadratic search.
    -- Step size scaled by   0.313
 Iteration  1 RMS(Cart)=  0.05504147 RMS(Int)=  0.00351879
 Iteration  2 RMS(Cart)=  0.00247670 RMS(Int)=  0.00217069
 Iteration  3 RMS(Cart)=  0.00002011 RMS(Int)=  0.00217064
 Iteration  4 RMS(Cart)=  0.00000006 RMS(Int)=  0.00217064
 Variable       Old X    -DE/DX   Delta X   Delta X   Delta X     New X
                                 (Linear)    (Quad)   (Total)
    R1        2.49589   0.00388   0.00000  -0.00015   0.00011   2.49600
    R2        2.45037  -0.01233   0.00000  -0.01188  -0.01195   2.43843
    R3        2.54522  -0.04613   0.00000  -0.11845  -0.11819   2.42703
    R4        2.52851   0.00779   0.00000  -0.00014  -0.00012   2.52839
    R5        2.89417  -0.01189   0.00000  -0.20177  -0.20147   2.69271
    R6        2.63155  -0.00894   0.00000  -0.00519  -0.00508   2.62647
    R7        2.03866   0.00047   0.00000   0.00016   0.00016   2.03882
    R8        2.54585   0.01172   0.00000   0.01173   0.01177   2.55762
    R9        2.03764   0.00007   0.00000  -0.00040  -0.00040   2.03724
   R10        2.71136  -0.01178   0.00000  -0.01909  -0.01967   2.69168
   R11        2.35305  -0.03770   0.00000   0.04507   0.04507   2.39812
   R12        2.36795   0.00101   0.00000   0.01406   0.01371   2.38166
    A1        1.99050  -0.00957   0.00000  -0.02401  -0.02385   1.96665
    A2        1.79563  -0.00655   0.00000  -0.05519  -0.05449   1.74114
    A3        2.49546   0.01624   0.00000   0.07862   0.07767   2.57313
    A4        1.85754   0.01051   0.00000   0.03107   0.03101   1.88855
    A5        1.82302   0.01518   0.00000   0.07502   0.07558   1.89860
    A6        2.59201  -0.02591   0.00000  -0.09691  -0.09902   2.49298
    A7        1.84775  -0.00902   0.00000  -0.02329  -0.02326   1.82449
    A8        2.13260   0.00518   0.00000   0.00839   0.00836   2.14095
    A9        2.30274   0.00381   0.00000   0.01490   0.01494   2.31768
   A10        1.90142   0.00207   0.00000   0.00650   0.00654   1.90796
   A11        2.26474  -0.00349   0.00000  -0.00532  -0.00533   2.25941
   A12        2.11702   0.00142   0.00000  -0.00118  -0.00121   2.11582
   A13        1.82749   0.00598   0.00000   0.00975   0.00961   1.83710
   A14        2.08416   0.00629   0.00000   0.02638   0.02669   2.11084
   A15        1.97458   0.01823   0.00000   0.05563   0.05537   2.02995
   A16        2.01057  -0.03031   0.00000  -0.02736  -0.02781   1.98276
   A17        2.28272   0.01356   0.00000  -0.02003  -0.02004   2.26268
   A18        1.69701   0.01568   0.00000  -0.01348  -0.01489   1.68213
    D1       -0.01287  -0.00271   0.00000   0.00084   0.00516  -0.00771
    D2       -3.04559   0.00118   0.00000  -0.03560  -0.03973  -3.08533
    D3       -3.10794  -0.00508   0.00000   0.00636   0.01043  -3.09751
    D4        0.14252  -0.00119   0.00000  -0.03008  -0.03446   0.10807
    D5        0.00943   0.00190   0.00000   0.00074  -0.00271   0.00672
    D6        3.07565   0.00401   0.00000  -0.01704  -0.02227   3.05338
    D7       -0.16716   0.00112   0.00000   0.02678   0.02923  -0.13793
    D8        3.04503  -0.00065   0.00000   0.04330   0.04749   3.09252
    D9        0.01031   0.00223   0.00000  -0.00209  -0.00523   0.00507
   D10        3.13855   0.00047   0.00000  -0.00227  -0.00276   3.13579
   D11        2.94908   0.00441   0.00000   0.10298   0.09721   3.04629
   D12       -0.20586   0.00266   0.00000   0.10280   0.09969  -0.10618
   D13       -3.07857  -0.00491   0.00000  -0.00236  -0.00250  -3.08106
   D14       -0.10359   0.00457   0.00000   0.03986   0.04337  -0.06022
   D15        0.26389  -0.00691   0.00000  -0.10432  -0.10265   0.16124
   D16       -3.04431   0.00257   0.00000  -0.06210  -0.05678  -3.10110
   D17       -0.00510  -0.00111   0.00000   0.00284   0.00395  -0.00115
   D18        3.13440  -0.00121   0.00000   0.00236   0.00418   3.13858
   D19       -3.13150   0.00089   0.00000   0.00316   0.00124  -3.13026
   D20        0.00800   0.00079   0.00000   0.00269   0.00147   0.00947
   D21       -0.00231  -0.00044   0.00000  -0.00224  -0.00094  -0.00326
   D22        3.14117  -0.00035   0.00000  -0.00181  -0.00115   3.14002
   D23        0.09907   0.00282   0.00000   0.00575   0.00353   0.10260
   D24        0.00728  -0.00310   0.00000  -0.02365  -0.02440  -0.01712
   D25        2.94605   0.00769   0.00000   0.03642   0.03774   2.98379
         Item               Value     Threshold  Converged?
 Maximum Force            0.046129     0.000450     NO 
 RMS     Force            0.011949     0.000300     NO 
 Maximum Displacement     0.163971     0.001800     NO 
 RMS     Displacement     0.055925     0.001200     NO 
 Predicted change in Energy=-1.507717D-02
 GradGradGradGradGradGradGradGradGradGradGradGradGradGradGradGradGradGrad

                          Input orientation:                          
 ---------------------------------------------------------------------
 Center     Atomic      Atomic             Coordinates (Angstroms)
 Number     Number       Type             X           Y           Z
 ---------------------------------------------------------------------
      1          7           0       -0.836797   -0.960413   -0.000281
      2          7           0       -0.321960    0.255864   -0.014413
      3          6           0       -1.329465    1.136251   -0.017373
      4          6           0       -2.477330    0.352846    0.002856
      5          7           0       -2.127044   -0.954411    0.015640
      6          1           0       -1.170358    2.203336   -0.022958
      7          1           0       -3.512383    0.654219    0.010293
      8          1           0        0.243113   -1.653301    0.056324
      9          6           0        1.096191    0.152709   -0.107171
     10          8           0        1.743527    1.243318   -0.062814
     11          8           0        1.518458   -1.034520   -0.083167
 ---------------------------------------------------------------------
                    Distance matrix (angstroms):
                    1          2          3          4          5
     1  N    0.000000
     2  N    1.320828   0.000000
     3  C    2.153837   1.337967   0.000000
     4  C    2.101430   2.157620   1.389866   0.000000
     5  N    1.290359   2.173476   2.237877   1.353435   0.000000
     6  H    3.181366   2.124265   1.078896   2.265647   3.299714
     7  H    3.125045   3.215291   2.235677   1.078061   2.122942
     8  H    1.284330   1.992291   3.203129   3.380577   2.471386
     9  C    2.233139   1.424920   2.619012   3.580812   3.410285
    10  O    3.393879   2.289901   3.075192   4.314265   4.451684
    11  O    2.357879   2.248768   3.581514   4.230663   3.647721
                    6          7          8          9         10
     6  H    0.000000
     7  H    2.808194   0.000000
     8  H    4.108265   4.408006   0.000000
     9  C    3.057680   4.637269   2.004032   0.000000
    10  O    3.068216   5.289326   3.264328   1.269031   0.000000
    11  O    4.209166   5.307536   1.424378   1.260318   2.289021
                   11
    11  O    0.000000
 Stoichiometry    C3H3N3O2
 Framework group  C1[X(C3H3N3O2)]
 Deg. of freedom    27
 Full point group                 C1      NOp   1
 Largest Abelian subgroup         C1      NOp   1
 Largest concise Abelian subgroup C1      NOp   1
                         Standard orientation:                         
 ---------------------------------------------------------------------
 Center     Atomic      Atomic             Coordinates (Angstroms)
 Number     Number       Type             X           Y           Z
 ---------------------------------------------------------------------
      1          7           0        0.593888   -0.944459   -0.014810
      2          7           0        0.003960    0.237303   -0.018173
      3          6           0        0.954227    1.178946    0.003197
      4          6           0        2.148909    0.468752    0.012617
      5          7           0        1.881273   -0.857880   -0.001708
      6          1           0        0.728750    2.234013    0.000021
      7          1           0        3.163037    0.834201    0.027022
      8          1           0       -0.439106   -1.703679   -0.092352
      9          6           0       -1.406732    0.046031    0.043132
     10          8           0       -2.119692    1.093889   -0.021079
     11          8           0       -1.753427   -1.165346    0.015388
 ---------------------------------------------------------------------
 Rotational constants (GHZ):           5.4728800           1.8275855           1.3704565
 Standard basis: 6-31+G(d,p) (6D, 7F)
 There are   167 symmetry adapted cartesian basis functions of A   symmetry.
 There are   167 symmetry adapted basis functions of A   symmetry.
   167 basis functions,   277 primitive gaussians,   167 cartesian basis functions
    29 alpha electrons       29 beta electrons
       nuclear repulsion energy       365.5856401752 Hartrees.
 NAtoms=   11 NActive=   11 NUniq=   11 SFac= 1.00D+00 NAtFMM=   60 NAOKFM=F Big=F
 Integral buffers will be    131072 words long.
 Raffenetti 2 integral format.
 Two-electron integral symmetry is turned on.
 ------------------------------------------------------------------------------
 Polarizable Continuum Model (PCM)
 =================================
 Model                : PCM.
 Atomic radii         : SMD-Coulomb.
 Polarization charges : Total charges.
 Charge compensation  : None.
 Solution method      : Matrix inversion.
 Cavity type          : VdW (van der Waals Surface) (Alpha=1.000).
 Cavity algorithm     : GePol (No added spheres)
                        Default sphere list used, NSphG=   11.
                        Lebedev-Laikov grids with approx.  5.0 points / Ang**2.
                        Smoothing algorithm: York/Karplus (Gamma=1.0000).
                        Polarization charges: spherical gaussians, with
                                              point-specific exponents (IZeta= 3).
                        Self-potential: point-specific (ISelfS= 7).
                        Self-field    : sphere-specific E.n sum rule (ISelfD= 2).
 1st derivatives      : Analytical E(r).r(x)/FMM algorithm (CHGder, D1EAlg=3).
                        Cavity 1st derivative terms included.
 Solvent              : Water, Eps=  78.355300 Eps(inf)=   1.777849
 ------------------------------------------------------------------------------
 Spheres list:
 ISph  on   Nord     Re0    Alpha      Xe            Ye            Ze
    1   N      1    1.8900  1.000      0.593888     -0.944459     -0.014810
    2   N      2    1.8900  1.000      0.003960      0.237303     -0.018173
    3   C      3    1.8500  1.000      0.954227      1.178946      0.003197
    4   C      4    1.8500  1.000      2.148909      0.468752      0.012617
    5   N      5    1.8900  1.000      1.881273     -0.857880     -0.001708
    6   H      6    1.2000  1.000      0.728750      2.234013      0.000021
    7   H      7    1.2000  1.000      3.163037      0.834201      0.027022
    8   H      8    1.2000  1.000     -0.439106     -1.703679     -0.092352
    9   C      9    1.8500  1.000     -1.406732      0.046031      0.043132
   10   O     10    1.5200  1.000     -2.119692      1.093889     -0.021079
   11   O     11    1.5200  1.000     -1.753427     -1.165346      0.015388
 ------------------------------------------------------------------------------
 ------------------------------------------------------------------------------
 Atomic radii for non-electrostatic terms: SMD-CDS.
 ------------------------------------------------------------------------------
 Nuclear repulsion after PCM non-electrostatic terms =      365.5922965176 Hartrees.
 One-electron integrals computed using PRISM.
 NBasis=   167 RedAO= T EigKep=  2.25D-05  NBF=   167
 NBsUse=   167 1.00D-06 EigRej= -1.00D+00 NBFU=   167
 Initial guess from the checkpoint file:  "/scratch/gongke2021/TS/Gau-32164.chk"
 B after Tr=    -0.000000    0.000000   -0.000000
         Rot=    0.999950    0.000594   -0.000087   -0.009988 Ang=   1.15 deg.
 ExpMin= 4.38D-02 ExpMax= 5.48D+03 ExpMxC= 8.25D+02 IAcc=2 IRadAn=         4 AccDes= 0.00D+00
 Harris functional with IExCor= 1009 and IRadAn=       4 diagonalized for initial guess.
 HarFok:  IExCor= 1009 AccDes= 0.00D+00 IRadAn=         4 IDoV= 1 UseB2=F ITyADJ=14
 ICtDFT=  3500011 ScaDFX=  1.000000  1.000000  1.000000  1.000000
 FoFCou: FMM=F IPFlag=           0 FMFlag=      100000 FMFlg1=           0
         NFxFlg=           0 DoJE=T BraDBF=F KetDBF=T FulRan=T
         wScrn=  0.000000 ICntrl=       500 IOpCl=  0 I1Cent=   200000004 NGrid=           0
         NMat0=    1 NMatS0=      1 NMatT0=    0 NMatD0=    1 NMtDS0=    0 NMtDT0=    0
 Petite list used in FoFCou.
 Keep R1 ints in memory in canonical form, NReq=118249495.
 Requested convergence on RMS density matrix=1.00D-08 within 128 cycles.
 Requested convergence on MAX density matrix=1.00D-06.
 Requested convergence on             energy=1.00D-06.
 No special actions if energy rises.
 Inv3:  Mode=1 IEnd=     2964108.
 Iteration    1 A*A^-1 deviation from unit magnitude is 2.66D-15 for     84.
 Iteration    1 A*A^-1 deviation from orthogonality  is 2.08D-15 for    474    200.
 Iteration    1 A^-1*A deviation from unit magnitude is 3.33D-15 for    245.
 Iteration    1 A^-1*A deviation from orthogonality  is 2.33D-15 for    929    884.
 Error on total polarization charges =  0.03610
 SCF Done:  E(RM062X) =  -430.627605299     A.U. after   13 cycles
            NFock= 13  Conv=0.48D-08     -V/T= 2.0086
 SMD-CDS (non-electrostatic) energy       (kcal/mol) =       4.18
 (included in total energy above)
 D1PCM: PCM CHGder 1st derivatives, ID1Alg=3 FixD1E=F DoIter=F DoCFld=F I1PDM=0.
 Calling FoFJK, ICntrl=      2127 FMM=F ISym2X=0 I1Cent= 0 IOpClX= 0 NMat=1 NMatS=1 NMatT=0.
 ***** Axes restored to original set *****
 -------------------------------------------------------------------
[...]
   A18        1.71604  -0.00002   0.00000  -0.00012  -0.00012   1.71592
    D1        0.00001  -0.00000   0.00000  -0.00001  -0.00001  -0.00000
    D2       -3.14083  -0.00000   0.00000  -0.00076  -0.00076  -3.14158
    D3        3.14081   0.00000   0.00000   0.00078   0.00078   3.14158
    D4       -0.00003   0.00000   0.00000   0.00002   0.00002  -0.00000
    D5       -0.00008   0.00000   0.00000   0.00008   0.00008  -0.00000
    D6       -3.13996  -0.00000   0.00000  -0.00161  -0.00161  -3.14157
    D7        0.00015  -0.00000   0.00000  -0.00015  -0.00015   0.00000
    D8        3.14014   0.00000   0.00000   0.00143   0.00143   3.14157
    D9        0.00007  -0.00000   0.00000  -0.00007  -0.00007   0.00000
   D10        3.14151   0.00000   0.00000   0.00008   0.00008   3.14159
   D11        3.14053   0.00000   0.00000   0.00105   0.00105   3.14158
   D12       -0.00122   0.00000   0.00000   0.00120   0.00120  -0.00001
   D13        3.14154  -0.00000   0.00000   0.00006   0.00006  -3.14159
   D14       -0.00008   0.00000   0.00000   0.00008   0.00008   0.00000
   D15        0.00108  -0.00000   0.00000  -0.00106  -0.00106   0.00002
   D16       -3.14054  -0.00000   0.00000  -0.00104  -0.00104  -3.14157
   D17       -0.00012   0.00000   0.00000   0.00012   0.00012  -0.00000
   D18        3.14156  -0.00000   0.00000   0.00004   0.00004  -3.14159
   D19       -3.14154  -0.00000   0.00000  -0.00005  -0.00005  -3.14159
   D20        0.00014  -0.00000   0.00000  -0.00014  -0.00014   0.00000
   D21        0.00013  -0.00000   0.00000  -0.00013  -0.00013   0.00000
   D22       -3.14154  -0.00000   0.00000  -0.00005  -0.00005   3.14159
   D23       -0.00021   0.00000   0.00000   0.00021   0.00021   0.00000
   D24        0.00013  -0.00000   0.00000  -0.00014  -0.00014  -0.00000
   D25       -3.14149   0.00000   0.00000  -0.00011  -0.00011   3.14159
         Item               Value     Threshold  Converged?
 Maximum Force            0.000038     0.000450     YES
 RMS     Force            0.000009     0.000300     YES
 Maximum Displacement     0.000939     0.001800     YES
 RMS     Displacement     0.000237     0.001200     YES
 Predicted change in Energy=-1.698033D-08
 Optimization completed.
    -- Stationary point found.
                           ----------------------------
                           !   Optimized Parameters   !
                           ! (Angstroms and Degrees)  !
 --------------------------                            --------------------------
 ! Name  Definition              Value          Derivative Info.                !
 --------------------------------------------------------------------------------
 ! R1    R(1,2)                  1.3228         -DE/DX =    0.0                 !
 ! R2    R(1,5)                  1.2895         -DE/DX =    0.0                 !
 ! R3    R(1,8)                  1.2242         -DE/DX =    0.0                 !
 ! R4    R(2,3)                  1.3409         -DE/DX =    0.0                 !
 ! R5    R(2,9)                  1.4946         -DE/DX =    0.0                 !
 ! R6    R(3,4)                  1.3862         -DE/DX =    0.0                 !
 ! R7    R(3,6)                  1.0793         -DE/DX =    0.0                 !
 ! R8    R(4,5)                  1.3574         -DE/DX =    0.0                 !
 ! R9    R(4,7)                  1.0782         -DE/DX =    0.0                 !
 ! R10   R(8,11)                 1.3285         -DE/DX =    0.0                 !
 ! R11   R(9,10)                 1.2086         -DE/DX =    0.0                 !
 ! R12   R(9,11)                 1.2716         -DE/DX =    0.0                 !
 ! A1    A(2,1,5)              111.1766         -DE/DX =    0.0                 !
 ! A2    A(2,1,8)               96.2709         -DE/DX =    0.0                 !
 ! A3    A(5,1,8)              152.5525         -DE/DX =    0.0                 !
 ! A4    A(1,2,3)              109.5978         -DE/DX =    0.0                 !
 ! A5    A(1,2,9)              109.6106         -DE/DX =    0.0                 !
 ! A6    A(3,2,9)              140.7916         -DE/DX =    0.0                 !
 ! A7    A(2,3,4)              103.7205         -DE/DX =    0.0                 !
 ! A8    A(2,3,6)              123.0584         -DE/DX =    0.0                 !
 ! A9    A(4,3,6)              133.2211         -DE/DX =    0.0                 !
 ! A10   A(3,4,5)              109.3978         -DE/DX =    0.0                 !
 ! A11   A(3,4,7)              129.1536         -DE/DX =    0.0                 !
 ! A12   A(5,4,7)              121.4486         -DE/DX =    0.0                 !
 ! A13   A(1,5,4)              106.1073         -DE/DX =    0.0                 !
 ! A14   A(1,8,11)             129.0583         -DE/DX =    0.0                 !
 ! A15   A(2,9,10)             119.1782         -DE/DX =    0.0                 !
 ! A16   A(2,9,11)             106.7386         -DE/DX =    0.0                 !
 ! A17   A(10,9,11)            134.0832         -DE/DX =    0.0                 !
 ! A18   A(8,11,9)              98.3216         -DE/DX =    0.0                 !
 ! D1    D(5,1,2,3)              0.0004         -DE/DX =    0.0                 !
 ! D2    D(5,1,2,9)           -179.956          -DE/DX =    0.0                 !
 ! D3    D(8,1,2,3)            179.9549         -DE/DX =    0.0                 !
 ! D4    D(8,1,2,9)             -0.0015         -DE/DX =    0.0                 !
 ! D5    D(2,1,5,4)             -0.0048         -DE/DX =    0.0                 !
 ! D6    D(8,1,5,4)           -179.9066         -DE/DX =    0.0                 !
 ! D7    D(2,1,8,11)             0.0087         -DE/DX =    0.0                 !
 ! D8    D(5,1,8,11)           179.9166         -DE/DX =    0.0                 !
 ! D9    D(1,2,3,4)              0.004          -DE/DX =    0.0                 !
 ! D10   D(1,2,3,6)            179.9953         -DE/DX =    0.0                 !
 ! D11   D(9,2,3,4)            179.9391         -DE/DX =    0.0                 !
 ! D12   D(9,2,3,6)             -0.0696         -DE/DX =    0.0                 !
 ! D13   D(1,2,9,10)          -180.0032         -DE/DX =    0.0                 !
 ! D14   D(1,2,9,11)            -0.0046         -DE/DX =    0.0                 !
 ! D15   D(3,2,9,10)             0.0617         -DE/DX =    0.0                 !
 ! D16   D(3,2,9,11)          -179.9397         -DE/DX =    0.0                 !
 ! D17   D(2,3,4,5)             -0.0069         -DE/DX =    0.0                 !
 ! D18   D(2,3,4,7)           -180.0021         -DE/DX =    0.0                 !
 ! D19   D(6,3,4,5)           -179.9969         -DE/DX =    0.0                 !
 ! D20   D(6,3,4,7)              0.0079         -DE/DX =    0.0                 !
 ! D21   D(3,4,5,1)              0.0073         -DE/DX =    0.0                 !
 ! D22   D(7,4,5,1)            180.0029         -DE/DX =    0.0                 !
 ! D23   D(1,8,11,9)            -0.0118         -DE/DX =    0.0                 !
 ! D24   D(2,9,11,8)             0.0077         -DE/DX =    0.0                 !
 ! D25   D(10,9,11,8)          180.006          -DE/DX =    0.0                 !
 --------------------------------------------------------------------------------
 GradGradGradGradGradGradGradGradGradGradGradGradGradGradGradGradGradGrad


 ----------------------------------------------------------------------

 Electric dipole moment (input orientation):
 (Debye = 10**-18 statcoulomb cm , SI units = C m)
                  (au)            (Debye)         (10**-30 SI)
   Tot        0.258610D+01      0.657320D+01      0.219258D+02
   x         -0.248851D+01     -0.632515D+01     -0.210984D+02
   y          0.702790D+00      0.178631D+01      0.595851D+01
   z          0.361808D-01      0.919624D-01      0.306754D+00

 Dipole polarizability, Alpha (input orientation).
 (esu units = cm**3 , SI units = C**2 m**2 J**-1)
 Alpha(0;0):
               (au)            (10**-24 esu)      (10**-40 SI)
   iso        0.799915D+02      0.118535D+02      0.131888D+02
   aniso      0.543917D+02      0.806001D+01      0.896797D+01
   xx         0.102514D+03      0.151909D+02      0.169022D+02
   yx         0.379255D+01      0.561998D+00      0.625307D+00
   yy         0.930026D+02      0.137816D+02      0.153341D+02
   zx        -0.117866D+01     -0.174659D+00     -0.194335D+00
   zy        -0.897672D+00     -0.133021D+00     -0.148006D+00
   zz         0.444583D+02      0.658803D+01      0.733018D+01

 ----------------------------------------------------------------------

 Dipole orientation:
     7         -0.61158618         -2.13076049          1.01408377
     7          0.01223544          0.27449515          0.74207677
     6          0.28857186          1.34401829          3.02258340
     6         -0.21884041         -0.61066335          4.69117754
     7         -0.77015214         -2.73821274          3.36867038
     1          0.79647554          3.30257942          3.27867616
     1         -0.21588686         -0.59630250          6.72868934
     1         -0.73826896         -2.61590716         -1.24428785
     6          0.17526530          0.90662104         -2.00589874
     8          0.72670851          3.03376170         -2.62832692
     8         -0.34692012         -1.10560201         -3.21107967

 Electric dipole moment (dipole orientation):
 (Debye = 10**-18 statcoulomb cm , SI units = C m)
                  (au)            (Debye)         (10**-30 SI)
   Tot        0.258610D+01      0.657320D+01      0.219258D+02
   x          0.000000D+00      0.000000D+00      0.000000D+00
   y          0.000000D+00      0.000000D+00      0.000000D+00
   z          0.258610D+01      0.657320D+01      0.219258D+02

 Dipole polarizability, Alpha (dipole orientation).
 (esu units = cm**3 , SI units = C**2 m**2 J**-1)
 Alpha(0;0):
               (au)            (10**-24 esu)      (10**-40 SI)
   iso        0.799915D+02      0.118535D+02      0.131888D+02
   aniso      0.543917D+02      0.806001D+01      0.896797D+01
   xx         0.476519D+02      0.706128D+01      0.785674D+01
   yx         0.124623D+02      0.184672D+01      0.205476D+01
   yy         0.924813D+02      0.137043D+02      0.152481D+02
   zx        -0.144786D+01     -0.214551D+00     -0.238721D+00
   zy        -0.555136D+01     -0.822627D+00     -0.915296D+00
   zz         0.998412D+02      0.147949D+02      0.164616D+02

 ----------------------------------------------------------------------
 1\1\GINC-NODE5\Freq\RM062X\6-31+G(d,p)\C3H3N3O2\GONGKE2021\06-Jul-2023
 \0\\#N Geom=AllCheck Guess=TCheck SCRF=Check GenChk RM062X/6-31+G(d,p)
  Freq\\test\\0,1\N,-0.8352677856,-0.9830580927,0.002502926\N,-0.339848
 6185,0.2430632972,-0.0277502157\C,-1.3424453997,1.1334761335,-0.023959
 5367\C,-2.4821792019,0.3451490704,0.0111137368\N,-2.1244280879,-0.9641
 277167,0.0265482682\H,-1.1822260184,2.2005586097,-0.0450911344\H,-3.51
 76014474,0.6456081261,0.0256371377\H,0.2426843916,-1.5631483357,-0.008
 9568891\C,1.1532009055,0.1802755043,-0.0559832054\O,1.7857771619,1.209
 6728768,-0.0856912587\O,1.4682855305,-1.051570733,-0.0414335185\\Versi
 on=ES64L-G16RevA.03\State=1-A\HF=-430.6400237\RMSD=4.259e-09\RMSF=2.06
 8e-05\ZeroPoint=0.0705676\Thermal=0.0761711\Dipole=-2.4885071,0.702790
 4,0.0361808\DipoleDeriv=-0.671842,0.8246703,-0.0023284,0.8399444,-0.43
 68696,-0.0096548,-0.0025523,-0.008884,-0.0716496,-1.8847019,-0.3091824
 ,0.0419087,-0.2543775,0.0207382,0.0045806,0.040965,0.0056468,0.0193895
 ,0.3581757,0.3627356,-0.0126071,-0.212868,0.0932187,0.0028142,-0.00253
 57,-0.0081104,0.0176357,0.1515322,-0.2032165,-0.0013862,-0.0079331,-0.
 3172805,0.0037303,-0.0048776,0.0074449,-0.1077854,-0.3835292,-0.607595
 8,0.0134365,0.0130497,0.1119794,-0.0061892,0.002943,0.0054293,-0.23134
 46,0.1825371,-0.0150116,0.0015222,0.0021192,0.2420732,0.0001096,0.0012
 072,0.0003698,0.2498023,0.1221008,0.0189081,0.0016808,-0.0060676,0.159
 0629,0.0012765,0.0020634,0.000802,0.2272934,1.9491573,-0.1036483,-0.02
 84247,-0.0479398,0.5141242,-0.0011046,-0.0294858,-0.0002358,0.3966207,
 3.3191547,0.3799796,-0.059392,0.5927248,3.2022745,-0.0554728,-0.063259
 8,-0.0512797,0.5928585,-1.4276986,-0.6113195,0.0272984,-0.7512314,-1.6
 947618,0.0338561,0.0298039,0.0311998,-0.5511635,-1.7148862,0.2636804,0
 .0182917,-0.1674206,-1.8945592,0.0260542,0.0257288,0.0176172,-0.541657
 \Polar=102.5135915,3.7925528,93.0026062,-1.1786585,-0.8976724,44.45825
 1\Quadrupole=-4.6500742,2.2915334,2.3585407,-6.8234387,0.2533038,0.132
 5816\PG=C01 [X(C3H3N3O2)]\NImag=1\\0.80152750,-0.06287721,0.63366753,-
 0.01188378,-0.00737734,0.12451571,-0.10784414,-0.01896925,0.00086257,0
 .77494713,-0.06912358,-0.30538758,0.00507502,-0.07467239,0.74516513,0.
 00173392,0.00418475,-0.08078672,-0.01139977,-0.00926793,0.11561219,-0.
 04068944,0.05543522,0.00008141,-0.24057610,0.11723019,0.00146882,0.601
 35819,0.00650859,-0.10451863,0.00191143,0.11559167,-0.23992634,0.00089
 553,0.05280699,0.95205002,0.00093231,0.00098151,0.01471794,0.00147820,
 0.00086870,-0.05940354,-0.00979596,-0.01493425,0.13359521,-0.07668679,
 0.03357079,0.00121201,-0.09716300,0.05313947,0.00112327,-0.28662645,-0
 .13096039,0.00630721,0.93449818,0.11828334,-0.05233403,-0.00104806,-0.
 05547833,0.04454713,0.00043562,-0.08524886,-0.19642509,0.00374503,-0.0
 7602570,0.59145352,-0.00024720,0.00053953,0.01649707,0.00296313,-0.001
 59839,0.00976823,0.00552727,0.00460369,-0.07243858,-0.01378236,-0.0062
 2694,0.14057875,-0.39872207,-0.03773230,0.00676538,-0.14013261,-0.0614
 9536,0.00423096,0.04691143,0.00691356,-0.00064164,-0.12699055,0.033592
 14,0.00047771,0.60965622,0.04066635,-0.10641958,-0.00030333,-0.0196948
 7,-0.05645842,0.00184135,-0.08386871,-0.06300856,0.00297994,0.04040654
 ,-0.30762519,0.00323003,0.02960701,0.53444305,0.00540871,0.00119532,-0
 .07675835,0.00353168,0.00263034,0.02867635,0.00090911,0.00126213,0.019
 00911,0.00035635,0.00335405,-0.07169544,-0.01001793,-0.00780602,0.1075
 0673,-0.00696341,0.00330649,0.00022096,0.00966996,0.03002661,-0.000748
 84,-0.06588442,-0.05865897,0.00162787,0.00906010,-0.01726428,0.0001505
 3,-0.00272501,-0.00591195,0.00025947,0.05576538,0.00122636,0.00249906,
 0.00006226,-0.00350903,-0.01188434,0.00021894,-0.04787349,-0.37198357,
 0.00667066,0.00169793,0.00009916,-0.00000866,0.00029182,0.00059648,0.0
 0008091,0.04794878,0.38131832,0.00025496,0.00002032,0.00761653,-0.0001
 8459,-0.00040943,-0.00291488,0.00145065,0.00686510,-0.03259439,-0.0001
 7212,0.00035375,0.00153853,0.00015588,0.00020006,0.00565244,-0.0014204
 4,-0.00697863,0.02380727,0.00305995,-0.00057794,0.00009916,-0.00226477
 ,-0.00172045,0.00018811,-0.00721416,0.00807179,0.00000483,-0.35852128,
 0.08365472,0.00476657,0.00048473,-0.00010999,-0.00013226,-0.00000555,-
 0.00015402,-0.00003619,0.36392984,0.00461568,-0.00671388,0.00015540,-0
 .00585023,-0.00307763,0.00026784,-0.01595248,0.01105109,0.00011946,0.0
 7607763,-0.07850541,-0.00065812,0.02983641,-0.00412757,-0.00060618,0.0
 0073666,-0.00009440,-0.00004750,-0.08967093,0.07903771,0.00001099,0.00
 025931,0.00777124,0.00025697,0.00018431,0.00602262,0.00041448,-0.00033
 597,0.00032025,0.00489240,-0.00080229,-0.03245008,-0.00063977,-0.00003
 753,-0.00657943,-0.00005125,-0.00003031,-0.00205656,-0.00490537,0.0007
 8235,0.02514216,0.00072223,0.05435017,-0.00136101,-0.01429545,0.022868
 76,-0.00005099,0.01526097,-0.01378526,-0.00001761,0.00224511,-0.019693
 04,0.00039431,-0.01400419,-0.01398252,0.00024898,0.00101439,0.00013565
 ,-0.00000847,-0.00014599,-0.00235511,0.00007286,-0.05966088,0.02931803
 ,-0.07368866,0.00026999,0.02209741,-0.03494047,0.00020293,-0.00319100,
 -0.00332686,0.00014381,-0.00262185,0.00132894,0.00010746,0.00176905,0.
 00713690,-0.00034297,0.00064883,-0.00029442,0.00000485,0.00006676,0.00
 060699,0.00001179,-0.04612753,0.15565871,-0.00092276,-0.00023642,-0.02
 187005,-0.00003521,0.00019754,0.00290920,-0.00020280,0.00035146,0.0015
 7202,0.00008438,0.00043298,0.00492582,-0.00000329,-0.00002254,-0.01193
 637,-0.00001856,0.00001398,0.00065762,0.00002915,0.00006197,0.00145032
 ,0.00283698,-0.00091961,0.04585838,-0.07069531,-0.04701713,0.00209705,
 -0.06678047,-0.00894999,0.00040674,-0.02615059,0.02584735,-0.00013366,
 0.01118551,0.01645585,-0.00039982,0.03747830,0.00139784,-0.00062206,0.
 00051144,0.00053295,-0.00005706,0.00126891,0.00203778,-0.00002743,0.04
 311568,-0.02060052,-0.00051813,0.45721543,0.00375267,0.01329114,-0.000
 37585,0.01846448,-0.10115599,0.00045000,0.01919566,0.00688991,-0.00064
 884,0.00478935,-0.01036756,0.00017015,-0.00902073,-0.01358452,0.000487
 20,-0.00032735,-0.00047855,-0.00001811,0.00012606,0.00024804,0.0000212
 0,-0.07694348,-0.02984261,0.00198818,0.21582909,1.02580869,0.00124083,
 0.00061790,-0.00365902,-0.00002427,0.00099384,-0.05365850,-0.00001624,
 -0.00078658,-0.00927671,-0.00021339,-0.00005357,0.00464389,-0.00046978
 ,0.00028688,0.00554760,-0.00004077,-0.00003469,-0.00191951,0.00000178,
 -0.00001869,0.00156135,0.00043065,0.00088653,-0.00104869,-0.00843276,-
 0.01791270,0.21242148,-0.00351165,0.01352602,-0.00011714,-0.06102491,-
 0.05174073,0.00239707,0.00759432,-0.00596621,-0.00003552,-0.00180188,-
 0.00389863,0.00009886,-0.01119228,-0.00370247,0.00024762,-0.00026329,-
 0.00013253,0.00001236,-0.00028283,-0.00027441,0.00000689,-0.00137293,0
 .00335041,0.00003807,-0.25331225,-0.26576925,0.00791616,0.29805065,-0.
 01308472,0.00506708,0.00021078,-0.03759977,-0.00331525,0.00107830,0.00
 087228,-0.00423707,0.00006066,-0.00265255,-0.00063091,0.00005727,-0.00
 468422,0.00221543,0.00002981,-0.00015740,0.00006832,0.00000665,-0.0001
 7112,-0.00000790,0.00000042,0.02860210,0.00247027,-0.00054295,-0.27030
 785,-0.51407059,0.01263765,0.33596880,0.63454949,0.00033284,-0.0003126
 4,0.00222078,0.00215274,0.00135335,0.01661617,-0.00015587,0.00019268,0
 .00025937,0.00007823,0.00008383,-0.00012182,0.00027304,0.00001381,-0.0
 0132083,0.00001283,0.00000604,0.00027549,0.00000551,0.00000295,-0.0001
 5583,-0.00038697,-0.00004903,0.00348096,0.00799194,0.01254742,-0.07794
 794,-0.01084980,-0.01670336,0.03344248,-0.10019687,0.00698513,0.002023
 40,-0.05453564,0.04443747,0.00065071,-0.00398374,-0.00636911,0.0002739
 7,-0.00919895,0.00562279,0.00005100,-0.00076396,0.01519277,-0.00018968
 ,-0.00017959,-0.00016440,0.00000503,-0.00030883,0.00079898,-0.00003076
 ,0.02712106,0.01529041,-0.00128784,-0.13383666,0.08990351,-0.00039220,
 0.02711704,-0.03678555,0.00054551,0.24876613,-0.05928551,-0.00546245,0
 .00141970,0.05962032,-0.03356623,-0.00030733,-0.00940578,0.01343510,0.
 00001331,0.00257878,0.00845944,-0.00021603,0.01092261,0.00683197,-0.00
 028458,-0.00034743,0.00015393,0.00000295,0.00048513,0.00158296,-0.0000
 5327,0.06693026,-0.02510879,-0.00132459,0.08477463,-0.37673798,0.00338
 344,-0.02136100,-0.12210888,0.00286496,-0.13491201,0.53252092,0.003139
 18,0.00012776,0.00973487,0.00039855,-0.00002736,0.01715887,0.00031913,
 -0.00002521,0.00423933,0.00011403,-0.00027440,-0.00124637,-0.00013055,
 -0.00038264,0.00189817,0.00000820,-0.00000048,-0.00006255,-0.00002128,
 -0.00005949,-0.00102603,-0.00215872,-0.00031575,-0.02599921,-0.0003048
 1,0.00329137,-0.07666395,0.00028542,0.00316475,0.02325116,-0.00164914,
 -0.00549856,0.04871572\\0.00000973,0.00001918,0.00001834,0.00001500,0.
 00001660,0.00001355,-0.00001597,-0.00000984,-0.00001300,-0.00000838,-0
 .00001632,0.00000340,-0.00000900,-0.00001555,-0.00000773,-0.00002313,-
 0.00000560,0.00000563,-0.00000605,-0.00003181,-0.00000019,0.00006332,-
 0.00003669,-0.00001201,0.00001684,0.00004182,-0.00001483,-0.00002601,0
 .00000729,0.00000299,-0.00001635,0.00003092,0.00000385\\\@


 I CLAIM NOT TO HAVE CONTROLLED EVENTS,
 BUT CONFESS PLAINLY THAT EVENTS HAVE CONTROLLED ME.

                                         A. LINCOLN
 Job cpu time:       0 days  0 hours 14 minutes 16.8 seconds.
 Elapsed time:       0 days  0 hours  0 minutes 43.6 seconds.
 File lengths (MBytes):  RWF=     58 Int=      0 D2E=      0 Chk=      8 Scr=      1
 Normal termination of Gaussian 16 at Thu Jul  6 20:48:49 2023.
