 Entering Gaussian System, Link 0=/opt/soft/g16/g16
 Initial command:
 /opt/soft/g16/l1.exe "/scratch/gongke2021/PC/Gau-5547.inp" -scrdir="/scratch/gongke2021/PC/"
 Entering Link 1 = /opt/soft/g16/l1.exe PID=      5548.
  
 Copyright (c) 1988,1990,1992,1993,1995,1998,2003,2009,2016,
            Gaussian, Inc.  All Rights Reserved.
  
 This is part of the Gaussian(R) 16 program.  It is based on
 the Gaussian(R) 09 system (copyright 2009, Gaussian, Inc.),
 the Gaussian(R) 03 system (copyright 2003, Gaussian, Inc.),
 the Gaussian(R) 98 system (copyright 1998, Gaussian, Inc.),
 the Gaussian(R) 94 system (copyright 1995, Gaussian, Inc.),
 the Gaussian 92(TM) system (copyright 1992, Gaussian, Inc.),
 the Gaussian 90(TM) system (copyright 1990, Gaussian, Inc.),
 the Gaussian 88(TM) system (copyright 1988, Gaussian, Inc.),
 the Gaussian 86(TM) system (copyright 1986, Carnegie Mellon
 University), and the Gaussian 82(TM) system (copyright 1983,
 Carnegie Mellon University). Gaussian is a federally registered
 trademark of Gaussian, Inc.
  
 This software contains proprietary and confidential information,
 including trade secrets, belonging to Gaussian, Inc.
  
 This software is provided under written license and may be
 used, copied, transmitted, or stored only in accord with that
 written license.
  
 The following legend is applicable only to US Government
 contracts under FAR:
  
                    RESTRICTED RIGHTS LEGEND
  
 Use, reproduction and disclosure by the US Government is
 subject to restrictions as set forth in subparagraphs (a)
 and (c) of the Commercial Computer Software - Restricted
 Rights clause in FAR 52.227-19.
  
 Gaussian, Inc.
 340 Quinnipiac St., Bldg. 40, Wallingford CT 06492
  
  
 ---------------------------------------------------------------
 Warning -- This program may not be used in any manner that
 competes with the business of Gaussian, Inc. or will provide
 assistance to any competitor of Gaussian, Inc.  The licensee
 of this program is prohibited from giving any competitor of
 Gaussian, Inc. access to this program.  By using this program,
 the user acknowledges that Gaussian, Inc. is engaged in the
 business of creating and licensing software in the field of
 computational chemistry and represents and warrants to the
 licensee that it is not a competitor of Gaussian, Inc. and that
 it will not use this program in any manner prohibited above.
 ---------------------------------------------------------------
  

 Cite this work as:
 Gaussian 16, Revision A.03,
 M. J. Frisch, G. W. Trucks, H. B. Schlegel, G. E. Scuseria, 
 M. A. Robb, J. R. Cheeseman, G. Scalmani, V. Barone, 
 G. A. Petersson, H. Nakatsuji, X. Li, M. Caricato, A. V. Marenich, 
 J. Bloino, B. G. Janesko, R. Gomperts, B. Mennucci, H. P. Hratchian, 
 J. V. Ortiz, A. F. Izmaylov, J. L. Sonnenberg, D. Williams-Young, 
 F. Ding, F. Lipparini, F. Egidi, J. Goings, B. Peng, A. Petrone, 
 T. Henderson, D. Ranasinghe, V. G. Zakrzewski, J. Gao, N. Rega, 
 G. Zheng, W. Liang, M. Hada, M. Ehara, K. Toyota, R. Fukuda, 
 J. Hasegawa, M. Ishida, T. Nakajima, Y. Honda, O. Kitao, H. Nakai, 
 T. Vreven, K. Throssell, J. A. Montgomery, Jr., J. E. Peralta, 
 F. Ogliaro, M. J. Bearpark, J. J. Heyd, E. N. Brothers, K. N. Kudin, 
 V. N. Staroverov, T. A. Keith, R. Kobayashi, J. Normand, 
 K. Raghavachari, A. P. Rendell, J. C. Burant, S. S. Iyengar, 
 J. Tomasi, M. Cossi, J. M. Millam, M. Klene, C. Adamo, R. Cammi, 
 J. W. Ochterski, R. L. Martin, K. Morokuma, O. Farkas, 
 J. B. Foresman, and D. J. Fox, Gaussian, Inc., Wallingford CT, 2016.
 
 ******************************************
 Gaussian 16:  ES64L-G16RevA.03 25-Dec-2016
                 6-Jul-2023 
 ******************************************
 %mem=10GB
 %nprocshared=20
 Will use up to   20 processors via shared memory.
 -----------------------------------------------------
 # opt freq 6-31+g(d,p) m062x scrf=(SMD,solvent=water)
 -----------------------------------------------------
 1/18=20,19=15,26=3,38=1/1,3;
 2/9=110,12=2,17=6,18=5,40=1/2;
 3/5=1,6=6,7=111,11=2,25=1,30=1,70=32201,71=1,72=1,74=-55/1,2,3;
 4//1;
 5/5=2,38=5,53=1/2;
 6/7=2,8=2,9=2,10=2,28=1/1;
 7//1,2,3,16;
 1/18=20,19=15,26=3/3(2);
 2/9=110/2;
 99//99;
 2/9=110/2;
 3/5=1,6=6,7=111,11=2,25=1,30=1,70=32205,71=1,72=1,74=-55/1,2,3;
 4/5=5,16=3,69=1/1;
 5/5=2,38=5,53=1/2;
 7//1,2,3,16;
 1/18=20,19=15,26=3/3(-5);
 2/9=110/2;
 6/7=2,8=2,9=2,10=2,19=2,28=1/1;
 99/9=1/99;
 ----
 test
 ----
 Symbolic Z-matrix:
 Charge =  0 Multiplicity = 1
 N                     0.6068   -0.93156  -0.00047 
 N                     0.03609   0.25478  -0.00061 
 C                     0.98711   1.19243  -0.00003 
 C                     2.17787   0.46947   0.00035 
 N                     1.89791  -0.85344   0.00017 
 H                     0.75974   2.24642  -0.00011 
 H                     3.19648   0.82363   0.00072 
 H                    -0.70959  -1.89837  -0.08068 
 C                    -1.53873   0.05769   0.00011 
 O                    -2.19624   1.05298   0.00009 
 O                    -1.69163  -1.18972   0.00029 
 
 Add virtual bond connecting atoms O11        and H8         Dist= 2.29D+00.

 GradGradGradGradGradGradGradGradGradGradGradGradGradGradGradGradGradGrad
 Berny optimization.
 Initialization pass.
                           ----------------------------
                           !    Initial Parameters    !
                           ! (Angstroms and Degrees)  !
 --------------------------                            --------------------------
 ! Name  Definition              Value          Derivative Info.                !
 --------------------------------------------------------------------------------
 ! R1    R(1,2)                  1.3165         estimate D2E/DX2                !
 ! R2    R(1,5)                  1.2935         estimate D2E/DX2                !
 ! R3    R(2,3)                  1.3355         estimate D2E/DX2                !
 ! R4    R(2,9)                  1.5871         estimate D2E/DX2                !
 ! R5    R(3,4)                  1.393          estimate D2E/DX2                !
 ! R6    R(3,6)                  1.0782         estimate D2E/DX2                !
 ! R7    R(4,5)                  1.3522         estimate D2E/DX2                !
 ! R8    R(4,7)                  1.0784         estimate D2E/DX2                !
 ! R9    R(8,11)                 1.2137         estimate D2E/DX2                !
 ! R10   R(9,10)                 1.1929         estimate D2E/DX2                !
 ! R11   R(9,11)                 1.2567         estimate D2E/DX2                !
 ! A1    A(2,1,5)              112.2283         estimate D2E/DX2                !
 ! A2    A(1,2,3)              108.9037         estimate D2E/DX2                !
 ! A3    A(1,2,9)              108.557          estimate D2E/DX2                !
 ! A4    A(3,2,9)              142.5393         estimate D2E/DX2                !
 ! A5    A(2,3,4)              104.1424         estimate D2E/DX2                !
 ! A6    A(2,3,6)              122.421          estimate D2E/DX2                !
 ! A7    A(4,3,6)              133.4366         estimate D2E/DX2                !
 ! A8    A(3,4,5)              109.3145         estimate D2E/DX2                !
 ! A9    A(3,4,7)              129.5644         estimate D2E/DX2                !
 ! A10   A(5,4,7)              121.1211         estimate D2E/DX2                !
 ! A11   A(1,5,4)              105.4112         estimate D2E/DX2                !
 ! A12   A(2,9,10)             116.3161         estimate D2E/DX2                !
 ! A13   A(2,9,11)             104.1217         estimate D2E/DX2                !
 ! A14   A(10,9,11)            139.5623         estimate D2E/DX2                !
 ! A15   A(8,11,9)             118.7559         estimate D2E/DX2                !
 ! D1    D(5,1,2,3)             -0.0003         estimate D2E/DX2                !
 ! D2    D(5,1,2,9)           -179.9429         estimate D2E/DX2                !
 ! D3    D(2,1,5,4)             -0.0047         estimate D2E/DX2                !
 ! D4    D(1,2,3,4)              0.005          estimate D2E/DX2                !
 ! D5    D(1,2,3,6)            179.9946         estimate D2E/DX2                !
 ! D6    D(9,2,3,4)            179.9155         estimate D2E/DX2                !
 ! D7    D(9,2,3,6)             -0.0949         estimate D2E/DX2                !
 ! D8    D(1,2,9,10)           179.9986         estimate D2E/DX2                !
 ! D9    D(1,2,9,11)            -0.0132         estimate D2E/DX2                !
 ! D10   D(3,2,9,10)             0.088          estimate D2E/DX2                !
 ! D11   D(3,2,9,11)          -179.9239         estimate D2E/DX2                !
 ! D12   D(2,3,4,5)             -0.0079         estimate D2E/DX2                !
 ! D13   D(2,3,4,7)            179.9911         estimate D2E/DX2                !
 ! D14   D(6,3,4,5)           -179.9958         estimate D2E/DX2                !
 ! D15   D(6,3,4,7)              0.0032         estimate D2E/DX2                !
 ! D16   D(3,4,5,1)              0.0078         estimate D2E/DX2                !
 ! D17   D(7,4,5,1)           -179.9913         estimate D2E/DX2                !
 ! D18   D(2,9,11,8)            -4.3442         estimate D2E/DX2                !
 ! D19   D(10,9,11,8)          175.6395         estimate D2E/DX2                !
 --------------------------------------------------------------------------------
 Trust Radius=3.00D-01 FncErr=1.00D-07 GrdErr=1.00D-06 EigMax=2.50D+02 EigMin=1.00D-04
 Number of steps in this run=     55 maximum allowed number of steps=    100.
 GradGradGradGradGradGradGradGradGradGradGradGradGradGradGradGradGradGrad

                          Input orientation:                          
 ---------------------------------------------------------------------
 Center     Atomic      Atomic             Coordinates (Angstroms)
 Number     Number       Type             X           Y           Z
 ---------------------------------------------------------------------
      1          7           0        0.606797   -0.931555   -0.000465
      2          7           0        0.036092    0.254784   -0.000605
      3          6           0        0.987109    1.192425   -0.000032
      4          6           0        2.177873    0.469470    0.000347
      5          7           0        1.897912   -0.853441    0.000168
      6          1           0        0.759744    2.246417   -0.000106
      7          1           0        3.196479    0.823632    0.000716
      8          1           0       -0.709591   -1.898373   -0.080679
      9          6           0       -1.538727    0.057693    0.000112
     10          8           0       -2.196236    1.052981    0.000094
     11          8           0       -1.691627   -1.189720    0.000292
 ---------------------------------------------------------------------
                    Distance matrix (angstroms):
                    1          2          3          4          5
     1  N    0.000000
     2  N    1.316474   0.000000
     3  C    2.157760   1.335516   0.000000
     4  C    2.105030   2.152514   1.393048   0.000000
     5  N    1.293476   2.166688   2.239449   1.352210   0.000000
     6  H    3.181650   2.119027   1.078237   2.273462   3.302203
     7  H    3.128440   3.211174   2.239939   1.078420   2.121049
     8  H    1.635251   2.280030   3.526801   3.735062   2.810247
     9  C    2.362601   1.587104   2.769019   3.739342   3.555370
    10  O    3.434440   2.370740   3.186398   4.412858   4.516248
    11  O    2.312878   2.252023   3.584723   4.210219   3.605256
                    6          7          8          9         10
     6  H    0.000000
     7  H    2.821701   0.000000
     8  H    4.398263   4.761650   0.000000
     9  C    3.173875   4.796753   2.126073   0.000000
    10  O    3.187806   5.397590   3.305621   1.192861   0.000000
    11  O    4.220931   5.286508   1.213730   1.256749   2.298769
                   11
    11  O    0.000000
 Stoichiometry    C3H3N3O2
 Framework group  C1[X(C3H3N3O2)]
 Deg. of freedom    27
 Full point group                 C1      NOp   1
 Largest Abelian subgroup         C1      NOp   1
 Largest concise Abelian subgroup C1      NOp   1
                         Standard orientation:                         
 ---------------------------------------------------------------------
 Center     Atomic      Atomic             Coordinates (Angstroms)
 Number     Number       Type             X           Y           Z
 ---------------------------------------------------------------------
      1          7           0       -0.605398   -0.930555   -0.003472
      2          7           0       -0.043396    0.259926    0.000006
      3          6           0       -1.001253    1.190574    0.002586
      4          6           0       -2.186691    0.458922    0.000482
      5          7           0       -1.897051   -0.861898   -0.003398
      6          1           0       -0.781612    2.246198    0.005729
      7          1           0       -3.207864    0.805614    0.001546
      8          1           0        0.718065   -1.887942    0.073368
      9          6           0        1.532824    0.074377   -0.001878
     10          8           0        2.183027    1.074449    0.000876
     11          8           0        1.694854   -1.171877   -0.005844
 ---------------------------------------------------------------------
 Rotational constants (GHZ):           5.4536863           1.7614180           1.3314482
 Standard basis: 6-31+G(d,p) (6D, 7F)
 There are   167 symmetry adapted cartesian basis functions of A   symmetry.
 There are   167 symmetry adapted basis functions of A   symmetry.
   167 basis functions,   277 primitive gaussians,   167 cartesian basis functions
    29 alpha electrons       29 beta electrons
       nuclear repulsion energy       362.2127114127 Hartrees.
 NAtoms=   11 NActive=   11 NUniq=   11 SFac= 1.00D+00 NAtFMM=   60 NAOKFM=F Big=F
 Integral buffers will be    131072 words long.
 Raffenetti 2 integral format.
 Two-electron integral symmetry is turned on.
 ------------------------------------------------------------------------------
 Polarizable Continuum Model (PCM)
 =================================
 Model                : PCM.
 Atomic radii         : SMD-Coulomb.
 Polarization charges : Total charges.
 Charge compensation  : None.
 Solution method      : On-the-fly selection.
 Cavity type          : VdW (van der Waals Surface) (Alpha=1.000).
 Cavity algorithm     : GePol (No added spheres)
                        Default sphere list used, NSphG=   11.
                        Lebedev-Laikov grids with approx.  5.0 points / Ang**2.
                        Smoothing algorithm: York/Karplus (Gamma=1.0000).
                        Polarization charges: spherical gaussians, with
                                              point-specific exponents (IZeta= 3).
                        Self-potential: point-specific (ISelfS= 7).
                        Self-field    : sphere-specific E.n sum rule (ISelfD= 2).
 1st derivatives      : Analytical E(r).r(x)/FMM algorithm (CHGder, D1EAlg=3).
                        Cavity 1st derivative terms included.
 Solvent              : Water, Eps=  78.355300 Eps(inf)=   1.777849
 ------------------------------------------------------------------------------
 Spheres list:
 ISph  on   Nord     Re0    Alpha      Xe            Ye            Ze
    1   N      1    1.8900  1.000     -0.605398     -0.930555     -0.003472
    2   N      2    1.8900  1.000     -0.043396      0.259926      0.000006
    3   C      3    1.8500  1.000     -1.001253      1.190574      0.002586
    4   C      4    1.8500  1.000     -2.186691      0.458922      0.000482
    5   N      5    1.8900  1.000     -1.897051     -0.861898     -0.003398
    6   H      6    1.2000  1.000     -0.781612      2.246198      0.005729
    7   H      7    1.2000  1.000     -3.207864      0.805614      0.001546
    8   H      8    1.2000  1.000      0.718065     -1.887942      0.073368
    9   C      9    1.8500  1.000      1.532824      0.074377     -0.001878
   10   O     10    1.5200  1.000      2.183027      1.074449      0.000876
   11   O     11    1.5200  1.000      1.694854     -1.171877     -0.005844
 ------------------------------------------------------------------------------
 ------------------------------------------------------------------------------
 Atomic radii for non-electrostatic terms: SMD-CDS.
 ------------------------------------------------------------------------------
 Nuclear repulsion after PCM non-electrostatic terms =      362.2199131993 Hartrees.
 One-electron integrals computed using PRISM.
 NBasis=   167 RedAO= T EigKep=  2.25D-05  NBF=   167
 NBsUse=   167 1.00D-06 EigRej= -1.00D+00 NBFU=   167
 ExpMin= 4.38D-02 ExpMax= 5.48D+03 ExpMxC= 8.25D+02 IAcc=3 IRadAn=         5 AccDes= 0.00D+00
 Harris functional with IExCor= 1009 and IRadAn=       5 diagonalized for initial guess.
 HarFok:  IExCor= 1009 AccDes= 0.00D+00 IRadAn=         5 IDoV= 1 UseB2=F ITyADJ=14
 ICtDFT=  3500011 ScaDFX=  1.000000  1.000000  1.000000  1.000000
 FoFCou: FMM=F IPFlag=           0 FMFlag=      100000 FMFlg1=           0
         NFxFlg=           0 DoJE=T BraDBF=F KetDBF=T FulRan=T
         wScrn=  0.000000 ICntrl=       500 IOpCl=  0 I1Cent=   200000004 NGrid=           0
         NMat0=    1 NMatS0=      1 NMatT0=    0 NMatD0=    1 NMtDS0=    0 NMtDT0=    0
 Petite list used in FoFCou.
 Keep R1 ints in memory in canonical form, NReq=118249495.
 Requested convergence on RMS density matrix=1.00D-08 within 128 cycles.
 Requested convergence on MAX density matrix=1.00D-06.
 Requested convergence on             energy=1.00D-06.
 No special actions if energy rises.
 Inv3:  Mode=1 IEnd=     3036108.
 Iteration    1 A*A^-1 deviation from unit magnitude is 3.11D-15 for    392.
 Iteration    1 A*A^-1 deviation from orthogonality  is 1.72D-15 for    786    573.
 Iteration    1 A^-1*A deviation from unit magnitude is 2.89D-15 for    546.
 Iteration    1 A^-1*A deviation from orthogonality  is 1.62D-15 for    908    689.
 Error on total polarization charges =  0.03486
 SCF Done:  E(RM062X) =  -430.617639532     A.U. after   14 cycles
            NFock= 14  Conv=0.63D-08     -V/T= 2.0085
 SMD-CDS (non-electrostatic) energy       (kcal/mol) =       4.52
 (included in total energy above)

 **********************************************************************

            Population analysis using the SCF density.

 **********************************************************************

 Orbital symmetries:
       Occupied  (A) (A) (A) (A) (A) (A) (A) (A) (A) (A) (A) (A)
                 (A) (A) (A) (A) (A) (A) (A) (A) (A) (A) (A) (A)
                 (A) (A) (A) (A) (A)
       Virtual   (A) (A) (A) (A) (A) (A) (A) (A) (A) (A) (A) (A)
                 (A) (A) (A) (A) (A) (A) (A) (A) (A) (A) (A) (A)
                 (A) (A) (A) (A) (A) (A) (A) (A) (A) (A) (A) (A)
                 (A) (A) (A) (A) (A) (A) (A) (A) (A) (A) (A) (A)
                 (A) (A) (A) (A) (A) (A) (A) (A) (A) (A) (A) (A)
                 (A) (A) (A) (A) (A) (A) (A) (A) (A) (A) (A) (A)
                 (A) (A) (A) (A) (A) (A) (A) (A) (A) (A) (A) (A)
                 (A) (A) (A) (A) (A) (A) (A) (A) (A) (A) (A) (A)
                 (A) (A) (A) (A) (A) (A) (A) (A) (A) (A) (A) (A)
                 (A) (A) (A) (A) (A) (A) (A) (A) (A) (A) (A) (A)
                 (A) (A) (A) (A) (A) (A) (A) (A) (A) (A) (A) (A)
                 (A) (A) (A) (A) (A) (A)
 The electronic state is 1-A.
 Alpha  occ. eigenvalues --  -19.71205 -19.68229 -14.87456 -14.85475 -14.81659
 Alpha  occ. eigenvalues --  -10.76546 -10.61080 -10.58804  -1.28556  -1.24006
 Alpha  occ. eigenvalues --   -1.19271  -1.03521  -0.92386  -0.76714  -0.73419
 Alpha  occ. eigenvalues --   -0.69938  -0.66910  -0.60363  -0.59095  -0.55478
 Alpha  occ. eigenvalues --   -0.54891  -0.53053  -0.49838  -0.42966  -0.42559
 Alpha  occ. eigenvalues --   -0.40427  -0.38715  -0.37717  -0.33460
 Alpha virt. eigenvalues --   -0.00836   0.01480   0.03676   0.04222   0.04603
 Alpha virt. eigenvalues --    0.05621   0.05701   0.06136   0.07801   0.08448
 Alpha virt. eigenvalues --    0.09498   0.09749   0.11390   0.12808   0.12871
 Alpha virt. eigenvalues --    0.14898   0.15792   0.16636   0.17264   0.19707
 Alpha virt. eigenvalues --    0.21022   0.21086   0.23174   0.23457   0.24205
 Alpha virt. eigenvalues --    0.25082   0.25534   0.27047   0.27063   0.28625
 Alpha virt. eigenvalues --    0.28728   0.29019   0.30181   0.31644   0.32195
 Alpha virt. eigenvalues --    0.33348   0.34552   0.35269   0.37280   0.40140
 Alpha virt. eigenvalues --    0.42225   0.44358   0.46036   0.51485   0.53407
 Alpha virt. eigenvalues --    0.66278   0.71394   0.74025   0.75492   0.77686
 Alpha virt. eigenvalues --    0.81277   0.86518   0.86965   0.89875   0.91249
 Alpha virt. eigenvalues --    0.93254   0.93715   0.95579   0.96959   0.97980
 Alpha virt. eigenvalues --    1.00335   1.01616   1.06902   1.12389   1.16990
 Alpha virt. eigenvalues --    1.18103   1.19977   1.21078   1.24049   1.26301
 Alpha virt. eigenvalues --    1.29183   1.30389   1.32126   1.33433   1.36148
 Alpha virt. eigenvalues --    1.37532   1.38063   1.40509   1.43877   1.44192
 Alpha virt. eigenvalues --    1.50422   1.51488   1.55807   1.57808   1.61507
 Alpha virt. eigenvalues --    1.64584   1.65906   1.70016   1.75165   1.80031
 Alpha virt. eigenvalues --    1.88124   1.90304   1.92160   1.95177   1.95843
 Alpha virt. eigenvalues --    2.03278   2.05650   2.09656   2.10099   2.14904
 Alpha virt. eigenvalues --    2.20769   2.24195   2.26520   2.29629   2.31406
 Alpha virt. eigenvalues --    2.37458   2.38516   2.40989   2.45815   2.49906
 Alpha virt. eigenvalues --    2.52207   2.55621   2.57721   2.62770   2.68422
 Alpha virt. eigenvalues --    2.73096   2.73480   2.80316   2.81330   2.84868
 Alpha virt. eigenvalues --    2.94581   2.99243   3.06845   3.10765   3.14216
 Alpha virt. eigenvalues --    3.22714   3.25051   3.32160   3.44746   3.73506
 Alpha virt. eigenvalues --    4.00638   4.17851   4.19128   4.24194   4.44786
 Alpha virt. eigenvalues --    4.56008   4.67495   4.76883
          Condensed to atoms (all electrons):
               1          2          3          4          5          6
     1  N    8.050433   0.022594  -0.295222   0.302208  -0.941318   0.003823
     2  N    0.022594   6.832973   0.390488  -0.134214   0.155557  -0.038510
     3  C   -0.295222   0.390488   5.440007   0.142143   0.125229   0.394400
     4  C    0.302208  -0.134214   0.142143   5.472044   0.055463  -0.015463
     5  N   -0.941318   0.155557   0.125229   0.055463   7.860030   0.002091
     6  H    0.003823  -0.038510   0.394400  -0.015463   0.002091   0.398512
     7  H    0.011172  -0.012760  -0.006893   0.382721  -0.041691   0.000367
     8  H    0.084097  -0.012334   0.004660  -0.005371   0.046693  -0.000005
     9  C    0.044275   0.070140  -0.056547  -0.007069  -0.018134  -0.004551
    10  O    0.018889  -0.072373  -0.067842   0.026989  -0.008152   0.000036
    11  O   -0.032243  -0.131774  -0.000769   0.003753   0.008188  -0.000641
               7          8          9         10         11
     1  N    0.011172   0.084097   0.044275   0.018889  -0.032243
     2  N   -0.012760  -0.012334   0.070140  -0.072373  -0.131774
     3  C   -0.006893   0.004660  -0.056547  -0.067842  -0.000769
     4  C    0.382721  -0.005371  -0.007069   0.026989   0.003753
     5  N   -0.041691   0.046693  -0.018134  -0.008152   0.008188
     6  H    0.000367  -0.000005  -0.004551   0.000036  -0.000641
     7  H    0.437923  -0.000002  -0.000587  -0.000052   0.000034
     8  H   -0.000002   0.214646  -0.006625   0.001090   0.131262
     9  C   -0.000587  -0.006625   4.309948   0.518085   0.318472
    10  O   -0.000052   0.001090   0.518085   8.203110  -0.100665
    11  O    0.000034   0.131262   0.318472  -0.100665   8.274153
 Mulliken charges:
               1
     1  N   -0.268707
     2  N   -0.069786
     3  C   -0.069654
     4  C   -0.223205
     5  N   -0.243955
     6  H    0.259941
     7  H    0.229768
     8  H    0.541890
     9  C    0.832593
    10  O   -0.519116
    11  O   -0.469769
 Sum of Mulliken charges =  -0.00000
 Mulliken charges with hydrogens summed into heavy atoms:
               1
     1  N   -0.268707
     2  N   -0.069786
     3  C    0.190287
     4  C    0.006564
     5  N   -0.243955
     9  C    0.832593
    10  O   -0.519116
    11  O    0.072121
 Electronic spatial extent (au):  <R**2>=            820.3008
 Charge=             -0.0000 electrons
 Dipole moment (field-independent basis, Debye):
    X=             -2.5498    Y=              0.9631    Z=              0.1869  Tot=              2.7320
 Quadrupole moment (field-independent basis, Debye-Ang):
   XX=            -54.2790   YY=            -42.1736   ZZ=            -45.6765
   XY=            -10.3871   XZ=              0.1100   YZ=             -0.3716
 Traceless Quadrupole moment (field-independent basis, Debye-Ang):
   XX=             -6.9026   YY=              5.2028   ZZ=              1.6999
   XY=            -10.3871   XZ=              0.1100   YZ=             -0.3716
 Octapole moment (field-independent basis, Debye-Ang**2):
  XXX=            -23.5481  YYY=             -1.2308  ZZZ=              0.0684  XYY=              0.2731
  XXY=              9.1790  XXZ=              0.1242  XZZ=              7.2272  YZZ=             -1.2400
  YYZ=              0.8331  XYZ=             -0.2916
 Hexadecapole moment (field-independent basis, Debye-Ang**3):
 XXXX=           -752.9897 YYYY=           -225.3612 ZZZZ=            -44.1876 XXXY=            -55.5970
 XXXZ=             -0.1157 YYYX=            -31.6216 YYYZ=             -1.5289 ZZZX=              0.0390
 ZZZY=             -0.1859 XXYY=           -195.4209 XXZZ=           -134.3040 YYZZ=            -55.1024
 XXYZ=             -0.2514 YYXZ=              0.5322 ZZXY=              0.8049
 N-N= 3.622199131993D+02 E-N=-1.729808836510D+03  KE= 4.269748293275D+02
 D1PCM: PCM CHGder 1st derivatives, ID1Alg=3 FixD1E=F DoIter=F DoCFld=F I1PDM=0.
 Calling FoFJK, ICntrl=      2127 FMM=F ISym2X=0 I1Cent= 0 IOpClX= 0 NMat=1 NMatS=1 NMatT=0.
 ***** Axes restored to original set *****
 -------------------------------------------------------------------
 Center     Atomic                   Forces (Hartrees/Bohr)
 Number     Number              X              Y              Z
 -------------------------------------------------------------------
      1        7           0.006580775   -0.039872842   -0.002135315
      2        7          -0.020471138   -0.024055876   -0.000156075
      3        6           0.010619907    0.009098037    0.000091953
      4        6           0.001119168    0.013120293    0.000315771
      5        7          -0.008439624    0.011226041   -0.000572191
      6        1           0.001427989    0.001014856    0.000064688
      7        1          -0.000356390    0.002379502    0.000081509
      8        1          -0.027316658    0.069792153    0.008277171
      9        6           0.068589533    0.017944905   -0.001669023
     10        8          -0.015738117   -0.006106507    0.000865177
     11        8          -0.016015445   -0.054540562   -0.005163666
 -------------------------------------------------------------------
 Cartesian Forces:  Max     0.069792153 RMS     0.023008257

 GradGradGradGradGradGradGradGradGradGradGradGradGradGradGradGradGradGrad
 Berny optimization.
 FormGI is forming the generalized inverse of G from B-inverse, IUseBI=4.
 Internal  Forces:  Max     0.092735728 RMS     0.019536922
 Search for a local minimum.
 Step number   1 out of a maximum of   55
 All quantities printed in internal units (Hartrees-Bohrs-Radians)
 Mixed Optimization -- RFO/linear search
 Second derivative matrix not updated -- first step.
 ITU=  0
     Eigenvalues ---    0.00230   0.01579   0.01870   0.02220   0.02338
     Eigenvalues ---    0.02366   0.02489   0.03587   0.16000   0.16000
     Eigenvalues ---    0.16000   0.22739   0.23690   0.24722   0.24737
     Eigenvalues ---    0.25000   0.25000   0.25000   0.36186   0.36208
     Eigenvalues ---    0.43897   0.49983   0.56267   0.59976   0.66356
     Eigenvalues ---    0.80792   1.08494
 RFO step:  Lambda=-6.46246216D-02 EMin= 2.30000000D-03
 Linear search not attempted -- first point.
 Maximum step size (   0.300) exceeded in Quadratic search.
    -- Step size scaled by   0.600
 Iteration  1 RMS(Cart)=  0.07114904 RMS(Int)=  0.00804230
 Iteration  2 RMS(Cart)=  0.01343017 RMS(Int)=  0.00030527
 Iteration  3 RMS(Cart)=  0.00032054 RMS(Int)=  0.00009658
 Iteration  4 RMS(Cart)=  0.00000017 RMS(Int)=  0.00009658
 Variable       Old X    -DE/DX   Delta X   Delta X   Delta X     New X
                                 (Linear)    (Quad)   (Total)
    R1        2.48778   0.02461   0.00000   0.02285   0.02290   2.51067
    R2        2.44432   0.00372   0.00000   0.00351   0.00360   2.44791
    R3        2.52376   0.01507   0.00000   0.01449   0.01444   2.53820
    R4        2.99919  -0.01279   0.00000  -0.02461  -0.02461   2.97458
    R5        2.63248  -0.01387   0.00000  -0.01732  -0.01740   2.61508
    R6        2.03757   0.00068   0.00000   0.00096   0.00096   2.03853
    R7        2.55531   0.00799   0.00000   0.00649   0.00650   2.56180
    R8        2.03792   0.00044   0.00000   0.00062   0.00062   2.03854
    R9        2.29362  -0.06342   0.00000  -0.12617  -0.12617   2.16744
   R10        2.25418   0.00360   0.00000   0.00188   0.00188   2.25606
   R11        2.37491  -0.00989   0.00000  -0.00680  -0.00680   2.36811
    A1        1.95875  -0.02303   0.00000  -0.03823  -0.03808   1.92067
    A2        1.90073   0.00519   0.00000   0.01359   0.01355   1.91428
    A3        1.89468   0.02435   0.00000   0.04457   0.04458   1.93926
    A4        2.48778  -0.02953   0.00000  -0.05816  -0.05815   2.42963
    A5        1.81763   0.00261   0.00000   0.00359   0.00345   1.82108
    A6        2.13665   0.00035   0.00000   0.00264   0.00271   2.13936
    A7        2.32891  -0.00297   0.00000  -0.00623  -0.00616   2.32275
    A8        1.90790  -0.00288   0.00000  -0.01150  -0.01157   1.89632
    A9        2.26133  -0.00094   0.00000  -0.00060  -0.00057   2.26076
   A10        2.11396   0.00382   0.00000   0.01210   0.01214   2.12610
   A11        1.83977   0.01811   0.00000   0.03255   0.03265   1.87242
   A12        2.03010   0.02019   0.00000   0.03849   0.03847   2.06857
   A13        1.81727  -0.00324   0.00000  -0.00617  -0.00619   1.81107
   A14        2.43582  -0.01695   0.00000  -0.03232  -0.03233   2.40349
   A15        2.07268  -0.09274   0.00000  -0.24764  -0.24764   1.82504
    D1       -0.00000   0.00027   0.00000   0.00217   0.00223   0.00222
    D2       -3.14060  -0.00042   0.00000  -0.00321  -0.00359   3.13900
    D3       -0.00008   0.00002   0.00000  -0.00004  -0.00011  -0.00019
    D4        0.00009  -0.00042   0.00000  -0.00321  -0.00328  -0.00319
    D5        3.14150  -0.00031   0.00000  -0.00240  -0.00242   3.13907
    D6        3.14012   0.00072   0.00000   0.00532   0.00516  -3.13791
    D7       -0.00166   0.00084   0.00000   0.00612   0.00601   0.00435
    D8        3.14157   0.00293   0.00000   0.02435   0.02447  -3.11715
    D9       -0.00023   0.00172   0.00000   0.01562   0.01550   0.01527
   D10        0.00154   0.00180   0.00000   0.01586   0.01597   0.01751
   D11       -3.14026   0.00058   0.00000   0.00713   0.00701  -3.13326
   D12       -0.00014   0.00044   0.00000   0.00324   0.00320   0.00306
   D13        3.14144   0.00013   0.00000   0.00095   0.00097  -3.14077
   D14       -3.14152   0.00031   0.00000   0.00230   0.00221  -3.13931
   D15        0.00006  -0.00000   0.00000   0.00001  -0.00001   0.00004
   D16        0.00014  -0.00029   0.00000  -0.00202  -0.00197  -0.00183
   D17       -3.14144  -0.00001   0.00000   0.00004   0.00005  -3.14139
   D18       -0.07582   0.00638   0.00000   0.03914   0.03896  -0.03686
   D19        3.06549   0.00471   0.00000   0.02709   0.02727   3.09275
         Item               Value     Threshold  Converged?
 Maximum Force            0.092736     0.000450     NO 
 RMS     Force            0.019537     0.000300     NO 
 Maximum Displacement     0.477543     0.001800     NO 
 RMS     Displacement     0.083103     0.001200     NO 
 Predicted change in Energy=-3.015812D-02
 GradGradGradGradGradGradGradGradGradGradGradGradGradGradGradGradGradGrad

                          Input orientation:                          
 ---------------------------------------------------------------------
 Center     Atomic      Atomic             Coordinates (Angstroms)
 Number     Number       Type             X           Y           Z
 ---------------------------------------------------------------------
      1          7           0        0.625837   -1.005246   -0.016943
      2          7           0        0.037989    0.186121   -0.001629
      3          6           0        0.972007    1.151326    0.005876
      4          6           0        2.173832    0.465343   -0.001664
      5          7           0        1.913602   -0.865003   -0.017155
      6          1           0        0.722648    2.200804    0.016143
      7          1           0        3.182610    0.847517    0.001235
      8          1           0       -0.663862   -1.645668   -0.040534
      9          6           0       -1.529739    0.044863   -0.004822
     10          8           0       -2.191569    1.038391   -0.017836
     11          8           0       -1.717530   -1.194134   -0.002830
 ---------------------------------------------------------------------
                    Distance matrix (angstroms):
                    1          2          3          4          5
     1  N    0.000000
     2  N    1.328592   0.000000
     3  C    2.184299   1.343156   0.000000
     4  C    2.135218   2.154017   1.383840   0.000000
     5  N    1.295380   2.150123   2.225470   1.355648   0.000000
     6  H    3.207682   2.127915   1.078744   2.262316   3.289172
     7  H    3.157555   3.213424   2.231387   1.078749   2.131535
     8  H    1.440146   1.962029   3.240586   3.537002   2.693196
     9  C    2.397787   1.574082   2.735527   3.727365   3.561546
    10  O    3.480551   2.386956   3.165681   4.402882   4.524969
    11  O    2.351009   2.233148   3.568595   4.230433   3.646046
                    6          7          8          9         10
     6  H    0.000000
     7  H    2.807672   0.000000
     8  H    4.089128   4.584001   0.000000
     9  C    3.117975   4.780222   1.899714   0.000000
    10  O    3.137678   5.377602   3.088458   1.193853   0.000000
    11  O    4.180961   5.308458   1.146961   1.253150   2.282347
                   11
    11  O    0.000000
 Stoichiometry    C3H3N3O2
 Framework group  C1[X(C3H3N3O2)]
 Deg. of freedom    27
 Full point group                 C1      NOp   1
 Largest Abelian subgroup         C1      NOp   1
 Largest concise Abelian subgroup C1      NOp   1
                         Standard orientation:                         
 ---------------------------------------------------------------------
 Center     Atomic      Atomic             Coordinates (Angstroms)
 Number     Number       Type             X           Y           Z
 ---------------------------------------------------------------------
      1          7           0       -0.630826   -0.976641    0.005537
      2          7           0       -0.043054    0.214816   -0.004988
      3          6           0       -0.977129    1.179993   -0.007253
      4          6           0       -2.178910    0.493916   -0.001639
      5          7           0       -1.918598   -0.836472    0.007620
      6          1           0       -0.727834    2.229520   -0.013043
      7          1           0       -3.187711    0.876042   -0.001847
      8          1           0        0.658928   -1.617090    0.025005
      9          6           0        1.524684    0.073632   -0.003942
     10          8           0        2.186475    1.067128    0.012899
     11          8           0        1.712536   -1.165333   -0.011685
 ---------------------------------------------------------------------
 Rotational constants (GHZ):           5.5117603           1.7540085           1.3306346
 Standard basis: 6-31+G(d,p) (6D, 7F)
 There are   167 symmetry adapted cartesian basis functions of A   symmetry.
 There are   167 symmetry adapted basis functions of A   symmetry.
   167 basis functions,   277 primitive gaussians,   167 cartesian basis functions
    29 alpha electrons       29 beta electrons
       nuclear repulsion energy       362.9811084215 Hartrees.
 NAtoms=   11 NActive=   11 NUniq=   11 SFac= 1.00D+00 NAtFMM=   60 NAOKFM=F Big=F
 Integral buffers will be    131072 words long.
 Raffenetti 2 integral format.
 Two-electron integral symmetry is turned on.
 ------------------------------------------------------------------------------
 Polarizable Continuum Model (PCM)
 =================================
 Model                : PCM.
 Atomic radii         : SMD-Coulomb.
 Polarization charges : Total charges.
 Charge compensation  : None.
 Solution method      : On-the-fly selection.
 Cavity type          : VdW (van der Waals Surface) (Alpha=1.000).
 Cavity algorithm     : GePol (No added spheres)
                        Default sphere list used, NSphG=   11.
                        Lebedev-Laikov grids with approx.  5.0 points / Ang**2.
                        Smoothing algorithm: York/Karplus (Gamma=1.0000).
                        Polarization charges: spherical gaussians, with
                                              point-specific exponents (IZeta= 3).
                        Self-potential: point-specific (ISelfS= 7).
                        Self-field    : sphere-specific E.n sum rule (ISelfD= 2).
 1st derivatives      : Analytical E(r).r(x)/FMM algorithm (CHGder, D1EAlg=3).
                        Cavity 1st derivative terms included.
 Solvent              : Water, Eps=  78.355300 Eps(inf)=   1.777849
 ------------------------------------------------------------------------------
 Spheres list:
 ISph  on   Nord     Re0    Alpha      Xe            Ye            Ze
    1   N      1    1.8900  1.000     -0.630826     -0.976641      0.005537
    2   N      2    1.8900  1.000     -0.043054      0.214816     -0.004988
    3   C      3    1.8500  1.000     -0.977129      1.179993     -0.007253
    4   C      4    1.8500  1.000     -2.178910      0.493916     -0.001639
    5   N      5    1.8900  1.000     -1.918598     -0.836472      0.007620
    6   H      6    1.2000  1.000     -0.727834      2.229520     -0.013043
    7   H      7    1.2000  1.000     -3.187711      0.876042     -0.001847
    8   H      8    1.2000  1.000      0.658928     -1.617090      0.025005
    9   C      9    1.8500  1.000      1.524684      0.073632     -0.003942
   10   O     10    1.5200  1.000      2.186475      1.067128      0.012899
   11   O     11    1.5200  1.000      1.712536     -1.165333     -0.011685
 ------------------------------------------------------------------------------
 ------------------------------------------------------------------------------
 Atomic radii for non-electrostatic terms: SMD-CDS.
 ------------------------------------------------------------------------------
 Nuclear repulsion after PCM non-electrostatic terms =      362.9881159998 Hartrees.
 One-electron integrals computed using PRISM.
 NBasis=   167 RedAO= T EigKep=  2.42D-05  NBF=   167
 NBsUse=   167 1.00D-06 EigRej= -1.00D+00 NBFU=   167
 Initial guess from the checkpoint file:  "/scratch/gongke2021/PC/Gau-5548.chk"
 B after Tr=    -0.000000    0.000000    0.000000
         Rot=    0.999996    0.000265    0.000033    0.002972 Ang=   0.34 deg.
 ExpMin= 4.38D-02 ExpMax= 5.48D+03 ExpMxC= 8.25D+02 IAcc=2 IRadAn=         4 AccDes= 0.00D+00
 Harris functional with IExCor= 1009 and IRadAn=       4 diagonalized for initial guess.
 HarFok:  IExCor= 1009 AccDes= 0.00D+00 IRadAn=         4 IDoV= 1 UseB2=F ITyADJ=14
 ICtDFT=  3500011 ScaDFX=  1.000000  1.000000  1.000000  1.000000
 FoFCou: FMM=F IPFlag=           0 FMFlag=      100000 FMFlg1=           0
         NFxFlg=           0 DoJE=T BraDBF=F KetDBF=T FulRan=T
         wScrn=  0.000000 ICntrl=       500 IOpCl=  0 I1Cent=   200000004 NGrid=           0
         NMat0=    1 NMatS0=      1 NMatT0=    0 NMatD0=    1 NMtDS0=    0 NMtDT0=    0
 Petite list used in FoFCou.
 Keep R1 ints in memory in canonical form, NReq=118249495.
 Requested convergence on RMS density matrix=1.00D-08 within 128 cycles.
 Requested convergence on MAX density matrix=1.00D-06.
 Requested convergence on             energy=1.00D-06.
 No special actions if energy rises.
 Inv3:  Mode=1 IEnd=     3024048.
 Iteration    1 A*A^-1 deviation from unit magnitude is 3.33D-15 for    379.
 Iteration    1 A*A^-1 deviation from orthogonality  is 2.03D-15 for    566     80.
 Iteration    1 A^-1*A deviation from unit magnitude is 3.33D-15 for    216.
 Iteration    1 A^-1*A deviation from orthogonality  is 1.33D-15 for    817    297.
 Error on total polarization charges =  0.03415
 SCF Done:  E(RM062X) =  -430.641051967     A.U. after   13 cycles
            NFock= 13  Conv=0.55D-08     -V/T= 2.0083
 SMD-CDS (non-electrostatic) energy       (kcal/mol) =       4.40
 (included in total energy above)
 D1PCM: PCM CHGder 1st derivatives, ID1Alg=3 FixD1E=F DoIter=F DoCFld=F I1PDM=0.
 Calling FoFJK, ICntrl=      2127 FMM=F ISym2X=0 I1Cent= 0 IOpClX= 0 NMat=1 NMatS=1 NMatT=0.
 ***** Axes restored to original set *****
 -------------------------------------------------------------------
 Center     Atomic                   Forces (Hartrees/Bohr)
 Number     Number              X              Y              Z
 -------------------------------------------------------------------
      1        7           0.001129451    0.000653914   -0.000416494
      2        7          -0.014746557   -0.001606656   -0.000222439
      3        6          -0.001492191    0.004582532    0.000272728
      4        6          -0.003475622    0.002347905   -0.000142544
      5        7          -0.001904209   -0.002944135   -0.000214005
      6        1           0.000319541    0.000544025    0.000096903
      7        1          -0.000368834    0.000152704    0.000043482
      8        1          -0.022826774    0.008952237    0.002826276
      9        6           0.052424340    0.029444719   -0.001342766
     10        8          -0.008161220   -0.002226062    0.001019381
     11        8          -0.000897925   -0.039901182   -0.001920522
 -------------------------------------------------------------------
 Cartesian Forces:  Max     0.052424340 RMS     0.013675113

 GradGradGradGradGradGradGradGradGradGradGradGradGradGradGradGradGradGrad
 Berny optimization.
 Using GEDIIS/GDIIS optimizer.
 FormGI is forming the generalized inverse of G from B-inverse, IUseBI=4.
 Internal  Forces:  Max     0.034142268 RMS     0.008710747
 Search for a local minimum.
 Step number   2 out of a maximum of   55
 All quantities printed in internal units (Hartrees-Bohrs-Radians)
 Mixed Optimization -- RFO/linear search
 Update second derivatives using D2CorX and points    1    2
 DE= -2.34D-02 DEPred=-3.02D-02 R= 7.76D-01
 TightC=F SS=  1.41D+00  RLast= 3.06D-01 DXNew= 5.0454D-01 9.1726D-01
 Trust test= 7.76D-01 RLast= 3.06D-01 DXMaxT set to 5.05D-01
 ITU=  1  0
 Use linear search instead of GDIIS.
     Eigenvalues ---    0.00231   0.01577   0.01777   0.02220   0.02338
     Eigenvalues ---    0.02367   0.02489   0.03604   0.15998   0.16000
     Eigenvalues ---    0.19468   0.20992   0.22906   0.24446   0.24777
     Eigenvalues ---    0.24838   0.24999   0.36181   0.36208   0.38934
     Eigenvalues ---    0.45110   0.50260   0.56457   0.61311   0.66389
     Eigenvalues ---    0.90959   1.08475
 RFO step:  Lambda=-1.11150150D-02 EMin= 2.30872977D-03
 Quartic linear search produced a step of  0.08925.
 Iteration  1 RMS(Cart)=  0.07414962 RMS(Int)=  0.00316984
 Iteration  2 RMS(Cart)=  0.00457979 RMS(Int)=  0.00015887
 Iteration  3 RMS(Cart)=  0.00001130 RMS(Int)=  0.00015854
 Iteration  4 RMS(Cart)=  0.00000000 RMS(Int)=  0.00015854
 Variable       Old X    -DE/DX   Delta X   Delta X   Delta X     New X
                                 (Linear)    (Quad)   (Total)
    R1        2.51067  -0.00133   0.00204   0.00030   0.00235   2.51303
    R2        2.44791  -0.00216   0.00032  -0.00300  -0.00267   2.44525
    R3        2.53820  -0.00014   0.00129   0.00142   0.00271   2.54091
    R4        2.97458  -0.02011  -0.00220  -0.08594  -0.08813   2.88645
    R5        2.61508  -0.00268  -0.00155  -0.00765  -0.00922   2.60586
    R6        2.03853   0.00045   0.00009   0.00140   0.00149   2.04002
    R7        2.56180   0.00314   0.00058   0.00711   0.00769   2.56949
    R8        2.03854  -0.00029   0.00006  -0.00079  -0.00073   2.03781
    R9        2.16744  -0.02460  -0.01126  -0.11572  -0.12698   2.04047
   R10        2.25606   0.00267   0.00017   0.00290   0.00306   2.25912
   R11        2.36811   0.03414  -0.00061   0.04418   0.04357   2.41168
    A1        1.92067  -0.00176  -0.00340  -0.01123  -0.01460   1.90607
    A2        1.91428   0.00367   0.00121   0.01558   0.01679   1.93107
    A3        1.93926   0.00404   0.00398   0.02023   0.02420   1.96345
    A4        2.42963  -0.00771  -0.00519  -0.03583  -0.04102   2.38861
    A5        1.82108  -0.00292   0.00031  -0.01272  -0.01243   1.80864
    A6        2.13936   0.00192   0.00024   0.00935   0.00960   2.14896
    A7        2.32275   0.00100  -0.00055   0.00337   0.00283   2.32558
    A8        1.89632   0.00145  -0.00103   0.00745   0.00640   1.90273
    A9        2.26076  -0.00099  -0.00005  -0.00555  -0.00559   2.25517
   A10        2.12610  -0.00046   0.00108  -0.00190  -0.00081   2.12529
   A11        1.87242  -0.00044   0.00291   0.00093   0.00385   1.87627
   A12        2.06857  -0.00338   0.00343  -0.01117  -0.00780   2.06076
   A13        1.81107   0.02481  -0.00055   0.10235   0.10174   1.91281
   A14        2.40349  -0.02142  -0.00289  -0.09097  -0.09391   2.30958
   A15        1.82504   0.00169  -0.02210   0.00451  -0.01759   1.80745
    D1        0.00222  -0.00001   0.00020  -0.00139  -0.00115   0.00107
    D2        3.13900  -0.00026  -0.00032  -0.00547  -0.00600   3.13300
    D3       -0.00019   0.00002  -0.00001   0.00072   0.00066   0.00046
    D4       -0.00319   0.00000  -0.00029   0.00143   0.00111  -0.00208
    D5        3.13907  -0.00002  -0.00022   0.00031   0.00010   3.13917
    D6       -3.13791   0.00028   0.00046   0.00692   0.00730  -3.13061
    D7        0.00435   0.00026   0.00054   0.00580   0.00628   0.01064
    D8       -3.11715   0.00057   0.00218   0.01319   0.01503  -3.10212
    D9        0.01527   0.00079   0.00138   0.03007   0.03177   0.04704
   D10        0.01751   0.00029   0.00143   0.00763   0.00874   0.02624
   D11       -3.13326   0.00051   0.00063   0.02451   0.02548  -3.10778
   D12        0.00306   0.00001   0.00029  -0.00102  -0.00073   0.00233
   D13       -3.14077   0.00002   0.00009   0.00013   0.00024  -3.14054
   D14       -3.13931   0.00003   0.00020   0.00028   0.00044  -3.13886
   D15        0.00004   0.00004  -0.00000   0.00142   0.00141   0.00145
   D16       -0.00183  -0.00002  -0.00018   0.00019   0.00004  -0.00179
   D17       -3.14139  -0.00003   0.00000  -0.00084  -0.00083   3.14097
   D18       -0.03686   0.00183   0.00348   0.02583   0.02986  -0.00700
   D19        3.09275   0.00238   0.00243   0.04900   0.05088  -3.13955
         Item               Value     Threshold  Converged?
 Maximum Force            0.034142     0.000450     NO 
 RMS     Force            0.008711     0.000300     NO 
 Maximum Displacement     0.329662     0.001800     NO 
 RMS     Displacement     0.073499     0.001200     NO 
 Predicted change in Energy=-6.381675D-03
 GradGradGradGradGradGradGradGradGradGradGradGradGradGradGradGradGradGrad

                          Input orientation:                          
 ---------------------------------------------------------------------
 Center     Atomic      Atomic             Coordinates (Angstroms)
 Number     Number       Type             X           Y           Z
 ---------------------------------------------------------------------
      1          7           0        0.671772   -1.022426   -0.040136
      2          7           0        0.065117    0.160539   -0.008110
      3          6           0        0.968587    1.156113    0.014159
      4          6           0        2.179422    0.496497   -0.003805
      5          7           0        1.953357   -0.843844   -0.038540
      6          1           0        0.695428    2.200209    0.039366
      7          1           0        3.177847    0.903845    0.005075
      8          1           0       -0.838312   -1.711218    0.008361
      9          6           0       -1.457290    0.037157   -0.019843
     10          8           0       -2.103142    1.043043   -0.034942
     11          8           0       -1.786961   -1.195602   -0.001742
 ---------------------------------------------------------------------
                    Distance matrix (angstroms):
                    1          2          3          4          5
     1  N    0.000000
     2  N    1.329836   0.000000
     3  C    2.199336   1.344590   0.000000
     4  C    2.140434   2.140834   1.378963   0.000000
     5  N    1.293968   2.138962   2.229883   1.359716   0.000000
     6  H    3.223703   2.135369   1.079531   2.259809   3.294650
     7  H    3.161168   3.200276   2.223635   1.078362   2.134408
     8  H    1.660463   2.078444   3.389175   3.739100   2.923687
     9  C    2.378242   1.527444   2.671722   3.665641   3.522645
    10  O    3.459239   2.341128   3.074201   4.317411   4.473873
    11  O    2.465123   2.295507   3.622687   4.312238   3.757002
                    6          7          8          9         10
     6  H    0.000000
     7  H    2.800740   0.000000
     8  H    4.201497   4.792504   0.000000
     9  C    3.052293   4.715535   1.854925   0.000000
    10  O    3.029282   5.282975   3.031109   1.195474   0.000000
    11  O    4.206599   5.390459   1.079768   1.276207   2.261106
                   11
    11  O    0.000000
 Stoichiometry    C3H3N3O2
 Framework group  C1[X(C3H3N3O2)]
 Deg. of freedom    27
 Full point group                 C1      NOp   1
 Largest Abelian subgroup         C1      NOp   1
 Largest concise Abelian subgroup C1      NOp   1
                         Standard orientation:                         
 ---------------------------------------------------------------------
 Center     Atomic      Atomic             Coordinates (Angstroms)
 Number     Number       Type             X           Y           Z
 ---------------------------------------------------------------------
      1          7           0       -0.635858   -1.007751    0.018001
      2          7           0       -0.053637    0.187615   -0.006098
      3          6           0       -0.977367    1.164569   -0.020411
      4          6           0       -2.174394    0.480128   -0.006075
      5          7           0       -1.920838   -0.855505    0.018849
      6          1           0       -0.725715    2.214206   -0.038382
      7          1           0       -3.180975    0.866951   -0.011128
      8          1           0        0.887989   -1.665039   -0.036803
      9          6           0        1.470993    0.095427    0.003367
     10          8           0        2.096085    1.114223    0.025087
     11          8           0        1.825869   -1.130145   -0.023868
 ---------------------------------------------------------------------
 Rotational constants (GHZ):           5.4496344           1.7621906           1.3318684
 Standard basis: 6-31+G(d,p) (6D, 7F)
 There are   167 symmetry adapted cartesian basis functions of A   symmetry.
 There are   167 symmetry adapted basis functions of A   symmetry.
   167 basis functions,   277 primitive gaussians,   167 cartesian basis functions
    29 alpha electrons       29 beta electrons
       nuclear repulsion energy       362.5793373880 Hartrees.
 NAtoms=   11 NActive=   11 NUniq=   11 SFac= 1.00D+00 NAtFMM=   60 NAOKFM=F Big=F
 Integral buffers will be    131072 words long.
 Raffenetti 2 integral format.
 Two-electron integral symmetry is turned on.
 ------------------------------------------------------------------------------
 Polarizable Continuum Model (PCM)
 =================================
 Model                : PCM.
 Atomic radii         : SMD-Coulomb.
 Polarization charges : Total charges.
 Charge compensation  : None.
 Solution method      : On-the-fly selection.
 Cavity type          : VdW (van der Waals Surface) (Alpha=1.000).
 Cavity algorithm     : GePol (No added spheres)
                        Default sphere list used, NSphG=   11.
                        Lebedev-Laikov grids with approx.  5.0 points / Ang**2.
                        Smoothing algorithm: York/Karplus (Gamma=1.0000).
                        Polarization charges: spherical gaussians, with
                                              point-specific exponents (IZeta= 3).
                        Self-potential: point-specific (ISelfS= 7).
                        Self-field    : sphere-specific E.n sum rule (ISelfD= 2).
 1st derivatives      : Analytical E(r).r(x)/FMM algorithm (CHGder, D1EAlg=3).
                        Cavity 1st derivative terms included.
 Solvent              : Water, Eps=  78.355300 Eps(inf)=   1.777849
 ------------------------------------------------------------------------------
 Spheres list:
 ISph  on   Nord     Re0    Alpha      Xe            Ye            Ze
    1   N      1    1.8900  1.000     -0.635858     -1.007751      0.018001
    2   N      2    1.8900  1.000     -0.053637      0.187615     -0.006098
    3   C      3    1.8500  1.000     -0.977367      1.164569     -0.020411
    4   C      4    1.8500  1.000     -2.174394      0.480128     -0.006075
    5   N      5    1.8900  1.000     -1.920838     -0.855505      0.018849
    6   H      6    1.2000  1.000     -0.725715      2.214206     -0.038382
    7   H      7    1.2000  1.000     -3.180975      0.866951     -0.011128
    8   H      8    1.2000  1.000      0.887989     -1.665039     -0.036803
    9   C      9    1.8500  1.000      1.470993      0.095427      0.003367
   10   O     10    1.5200  1.000      2.096085      1.114223      0.025087
   11   O     11    1.5200  1.000      1.825869     -1.130145     -0.023868
 ------------------------------------------------------------------------------
 ------------------------------------------------------------------------------
 Atomic radii for non-electrostatic terms: SMD-CDS.
 ------------------------------------------------------------------------------
 Nuclear repulsion after PCM non-electrostatic terms =      362.5861514312 Hartrees.
 One-electron integrals computed using PRISM.
 NBasis=   167 RedAO= T EigKep=  2.50D-05  NBF=   167
 NBsUse=   167 1.00D-06 EigRej= -1.00D+00 NBFU=   167
 Initial guess from the checkpoint file:  "/scratch/gongke2021/PC/Gau-5548.chk"
 B after Tr=     0.000000   -0.000000    0.000000
         Rot=    0.999940    0.000019    0.000211   -0.010911 Ang=   1.25 deg.
 ExpMin= 4.38D-02 ExpMax= 5.48D+03 ExpMxC= 8.25D+02 IAcc=2 IRadAn=         4 AccDes= 0.00D+00
 Harris functional with IExCor= 1009 and IRadAn=       4 diagonalized for initial guess.
 HarFok:  IExCor= 1009 AccDes= 0.00D+00 IRadAn=         4 IDoV= 1 UseB2=F ITyADJ=14
 ICtDFT=  3500011 ScaDFX=  1.000000  1.000000  1.000000  1.000000
 FoFCou: FMM=F IPFlag=           0 FMFlag=      100000 FMFlg1=           0
         NFxFlg=           0 DoJE=T BraDBF=F KetDBF=T FulRan=T
         wScrn=  0.000000 ICntrl=       500 IOpCl=  0 I1Cent=   200000004 NGrid=           0
         NMat0=    1 NMatS0=      1 NMatT0=    0 NMatD0=    1 NMtDS0=    0 NMtDT0=    0
 Petite list used in FoFCou.
 Keep R1 ints in memory in canonical form, NReq=118249495.
 Requested convergence on RMS density matrix=1.00D-08 within 128 cycles.
 Requested convergence on MAX density matrix=1.00D-06.
 Requested convergence on             energy=1.00D-06.
 No special actions if energy rises.
 Inv3:  Mode=1 IEnd=     3012012.
 Iteration    1 A*A^-1 deviation from unit magnitude is 3.11D-15 for      2.
 Iteration    1 A*A^-1 deviation from orthogonality  is 1.59D-15 for    599    384.
 Iteration    1 A^-1*A deviation from unit magnitude is 3.33D-15 for      2.
 Iteration    1 A^-1*A deviation from orthogonality  is 1.42D-15 for    190     98.
 Error on total polarization charges =  0.03422
 SCF Done:  E(RM062X) =  -430.652102641     A.U. after   13 cycles
            NFock= 13  Conv=0.40D-08     -V/T= 2.0084
 SMD-CDS (non-electrostatic) energy       (kcal/mol) =       4.28
 (included in total energy above)
 D1PCM: PCM CHGder 1st derivatives, ID1Alg=3 FixD1E=F DoIter=F DoCFld=F I1PDM=0.
 Calling FoFJK, ICntrl=      2127 FMM=F ISym2X=0 I1Cent= 0 IOpClX= 0 NMat=1 NMatS=1 NMatT=0.
 ***** Axes restored to original set *****
 -------------------------------------------------------------------
 Center     Atomic                   Forces (Hartrees/Bohr)
 Number     Number              X              Y              Z
 -------------------------------------------------------------------
      1        7           0.005270199   -0.005221508    0.000299261
      2        7          -0.028282949   -0.016506562   -0.001218401
      3        6           0.001116221    0.006197244   -0.000148739
      4        6          -0.000375477    0.003712825   -0.000200296
      5        7          -0.003578167    0.000239136    0.000556834
      6        1          -0.000025736   -0.000299994    0.000062501
      7        1          -0.000078736    0.000347729   -0.000001134
      8        1          -0.035049635    0.011523990   -0.001118230
      9        6           0.041779849    0.033705841    0.001717463
     10        8          -0.009409836    0.000138389   -0.000379484
     11        8           0.028634267   -0.033837091    0.000430227
 -------------------------------------------------------------------
 Cartesian Forces:  Max     0.041779849 RMS     0.015072471

 GradGradGradGradGradGradGradGradGradGradGradGradGradGradGradGradGradGrad
 Berny optimization.
 Using GEDIIS/GDIIS optimizer.
 FormGI is forming the generalized inverse of G from B-inverse, IUseBI=4.
 Internal  Forces:  Max     0.036342422 RMS     0.008630695
 Search for a local minimum.
 Step number   3 out of a maximum of   55
 All quantities printed in internal units (Hartrees-Bohrs-Radians)
 Mixed Optimization -- RFO/linear search
 Update second derivatives using D2CorX and points    1    2    3
 DE= -1.11D-02 DEPred=-6.38D-03 R= 1.73D+00
 TightC=F SS=  1.41D+00  RLast= 2.33D-01 DXNew= 8.4853D-01 6.9835D-01
 Trust test= 1.73D+00 RLast= 2.33D-01 DXMaxT set to 6.98D-01
 ITU=  1  1  0
 Use linear search instead of GDIIS.
     Eigenvalues ---    0.00231   0.00838   0.01595   0.01651   0.02220
     Eigenvalues ---    0.02339   0.02369   0.02493   0.03906   0.16002
     Eigenvalues ---    0.16003   0.22815   0.23762   0.24419   0.24825
     Eigenvalues ---    0.24999   0.36182   0.36198   0.39709   0.45445
     Eigenvalues ---    0.49927   0.56128   0.60671   0.66275   0.72806
     Eigenvalues ---    1.01241   1.11802
 RFO step:  Lambda=-2.22271308D-02 EMin= 2.30892744D-03
 Quartic linear search produced a step of  1.67494.
 Iteration  1 RMS(Cart)=  0.19339223 RMS(Int)=  0.09258490
 Iteration  2 RMS(Cart)=  0.09738375 RMS(Int)=  0.04692938
 Iteration  3 RMS(Cart)=  0.02946978 RMS(Int)=  0.01645082
 Iteration  4 RMS(Cart)=  0.01437942 RMS(Int)=  0.00069610
 Iteration  5 RMS(Cart)=  0.00001437 RMS(Int)=  0.00069599
 Iteration  6 RMS(Cart)=  0.00000000 RMS(Int)=  0.00069599
 Variable       Old X    -DE/DX   Delta X   Delta X   Delta X     New X
                                 (Linear)    (Quad)   (Total)
    R1        2.51303   0.00383   0.00394   0.02028   0.02434   2.53737
    R2        2.44525  -0.00093  -0.00447  -0.00573  -0.01002   2.43523
    R3        2.54091   0.00428   0.00454   0.01937   0.02382   2.56473
    R4        2.88645  -0.02678  -0.14762  -0.27062  -0.41823   2.46822
    R5        2.60586  -0.00297  -0.01544  -0.03115  -0.04678   2.55909
    R6        2.04002  -0.00030   0.00249   0.00202   0.00451   2.04453
    R7        2.56949   0.00302   0.01288   0.02321   0.03606   2.60555
    R8        2.03781   0.00005  -0.00122  -0.00092  -0.00215   2.03566
    R9        2.04047  -0.03634  -0.21268  -0.41258  -0.62526   1.41520
   R10        2.25912   0.00523   0.00513   0.01291   0.01804   2.27716
   R11        2.41168   0.02316   0.07298   0.12084   0.19382   2.60550
    A1        1.90607  -0.00400  -0.02446  -0.05272  -0.07681   1.82926
    A2        1.93107   0.00147   0.02812   0.03933   0.06741   1.99848
    A3        1.96345   0.01156   0.04053   0.10512   0.14561   2.10906
    A4        2.38861  -0.01302  -0.06871  -0.14422  -0.21296   2.17564
    A5        1.80864  -0.00049  -0.02082  -0.01992  -0.04105   1.76759
    A6        2.14896   0.00017   0.01608   0.01514   0.03138   2.18035
    A7        2.32558   0.00031   0.00474   0.00478   0.00967   2.33525
    A8        1.90273  -0.00049   0.01073   0.00184   0.01234   1.91507
    A9        2.25517  -0.00007  -0.00936  -0.00803  -0.01729   2.23788
   A10        2.12529   0.00055  -0.00136   0.00620   0.00494   2.13023
   A11        1.87627   0.00351   0.00644   0.03149   0.03811   1.91438
   A12        2.06076   0.00686  -0.01307   0.03167   0.01830   2.07907
   A13        1.91281   0.00392   0.17040   0.17742   0.34756   2.26037
   A14        2.30958  -0.01077  -0.15730  -0.20856  -0.36610   1.94348
   A15        1.80745   0.01347  -0.02947  -0.00861  -0.03808   1.76937
    D1        0.00107   0.00007  -0.00192   0.00059  -0.00172  -0.00064
    D2        3.13300   0.00019  -0.01005   0.01840   0.01034  -3.13985
    D3        0.00046  -0.00018   0.00110  -0.00387  -0.00235  -0.00189
    D4       -0.00208   0.00007   0.00187   0.00283   0.00490   0.00283
    D5        3.13917   0.00011   0.00016   0.00553   0.00570  -3.13832
    D6       -3.13061  -0.00034   0.01223  -0.02382  -0.01065  -3.14126
    D7        0.01064  -0.00030   0.01052  -0.02111  -0.00985   0.00079
    D8       -3.10212  -0.00054   0.02517  -0.11775  -0.09141   3.08965
    D9        0.04704  -0.00107   0.05322  -0.17847  -0.12621  -0.07917
   D10        0.02624  -0.00018   0.01463  -0.09114  -0.07555  -0.04930
   D11       -3.10778  -0.00071   0.04268  -0.15186  -0.11035   3.06506
   D12        0.00233  -0.00018  -0.00122  -0.00520  -0.00615  -0.00382
   D13       -3.14054   0.00004   0.00040   0.00004   0.00034  -3.14019
   D14       -3.13886  -0.00023   0.00074  -0.00831  -0.00706   3.13726
   D15        0.00145  -0.00001   0.00236  -0.00307  -0.00056   0.00089
   D16       -0.00179   0.00022   0.00007   0.00569   0.00561   0.00382
   D17        3.14097   0.00002  -0.00139   0.00093  -0.00039   3.14057
   D18       -0.00700  -0.00047   0.05002  -0.00827   0.03946   0.03246
   D19       -3.13955  -0.00123   0.08522  -0.08261   0.00488  -3.13467
         Item               Value     Threshold  Converged?
 Maximum Force            0.036342     0.000450     NO 
 RMS     Force            0.008631     0.000300     NO 
 Maximum Displacement     1.250338     0.001800     NO 
 RMS     Displacement     0.283229     0.001200     NO 
 Predicted change in Energy=-4.484460D-02
 GradGradGradGradGradGradGradGradGradGradGradGradGradGradGradGradGradGrad

                          Input orientation:                          
 ---------------------------------------------------------------------
 Center     Atomic      Atomic             Coordinates (Angstroms)
 Number     Number       Type             X           Y           Z
 ---------------------------------------------------------------------
      1          7           0        0.887369   -1.147845    0.026298
      2          7           0        0.172015   -0.011737    0.005846
      3          6           0        0.917208    1.122439   -0.011779
      4          6           0        2.172564    0.614585   -0.004603
      5          7           0        2.117176   -0.762857    0.021381
      6          1           0        0.515906    2.127071   -0.026516
      7          1           0        3.107798    1.149093   -0.011987
      8          1           0       -1.499962   -1.694597   -0.069897
      9          6           0       -1.133745   -0.042548    0.006542
     10          8           0       -1.744826    0.995413    0.042515
     11          8           0       -1.985677   -1.124704   -0.057958
 ---------------------------------------------------------------------
                    Distance matrix (angstroms):
                    1          2          3          4          5
     1  N    0.000000
     2  N    1.342718   0.000000
     3  C    2.270799   1.357195   0.000000
     4  C    2.181477   2.096326   1.354210   0.000000
     5  N    1.288668   2.085204   2.235030   1.378800   0.000000
     6  H    3.296339   2.166519   1.081918   2.243347   3.304246
     7  H    3.194949   3.157003   2.190752   1.077226   2.153601
     8  H    2.451028   2.373450   3.712382   4.338667   3.736330
     9  C    2.303687   1.306124   2.358801   3.370998   3.329798
    10  O    3.394447   2.165635   2.665617   3.936140   4.243468
    11  O    2.874374   2.428662   3.671311   4.507653   4.119542
                    6          7          8          9         10
     6  H    0.000000
     7  H    2.770299   0.000000
     8  H    4.320966   5.414922   0.000000
     9  C    2.725745   4.405796   1.693879   0.000000
    10  O    2.529095   4.855363   2.703470   1.205022   0.000000
    11  O    4.102797   5.578150   0.748893   1.378771   2.136118
                   11
    11  O    0.000000
 Stoichiometry    C3H3N3O2
 Framework group  C1[X(C3H3N3O2)]
 Deg. of freedom    27
 Full point group                 C1      NOp   1
 Largest Abelian subgroup         C1      NOp   1
 Largest concise Abelian subgroup C1      NOp   1
                         Standard orientation:                         
 ---------------------------------------------------------------------
 Center     Atomic      Atomic             Coordinates (Angstroms)
 Number     Number       Type             X           Y           Z
 ---------------------------------------------------------------------
      1          7           0       -0.691877   -1.157533   -0.031626
      2          7           0       -0.066814    0.030496   -0.003803
      3          6           0       -0.897733    1.103145    0.027412
      4          6           0       -2.109881    0.499375    0.020933
      5          7           0       -1.947827   -0.869317   -0.017927
      6          1           0       -0.575587    2.135750    0.049654
      7          1           0       -3.083750    0.959517    0.037214
      8          1           0        1.731151   -1.517975    0.049356
      9          6           0        1.237377    0.101237   -0.010354
     10          8           0        1.765825    1.183815   -0.039408
     11          8           0        2.171079   -0.911983    0.040575
 ---------------------------------------------------------------------
 Rotational constants (GHZ):           5.5862719           1.8057799           1.3653270
 Standard basis: 6-31+G(d,p) (6D, 7F)
 There are   167 symmetry adapted cartesian basis functions of A   symmetry.
 There are   167 symmetry adapted basis functions of A   symmetry.
   167 basis functions,   277 primitive gaussians,   167 cartesian basis functions
    29 alpha electrons       29 beta electrons
       nuclear repulsion energy       367.1440790040 Hartrees.
 NAtoms=   11 NActive=   11 NUniq=   11 SFac= 1.00D+00 NAtFMM=   60 NAOKFM=F Big=F
 Integral buffers will be    131072 words long.
 Raffenetti 2 integral format.
 Two-electron integral symmetry is turned on.
 ------------------------------------------------------------------------------
 Polarizable Continuum Model (PCM)
 =================================
 Model                : PCM.
 Atomic radii         : SMD-Coulomb.
 Polarization charges : Total charges.
 Charge compensation  : None.
 Solution method      : On-the-fly selection.
 Cavity type          : VdW (van der Waals Surface) (Alpha=1.000).
 Cavity algorithm     : GePol (No added spheres)
                        Default sphere list used, NSphG=   11.
                        Lebedev-Laikov grids with approx.  5.0 points / Ang**2.
                        Smoothing algorithm: York/Karplus (Gamma=1.0000).
                        Polarization charges: spherical gaussians, with
                                              point-specific exponents (IZeta= 3).
                        Self-potential: point-specific (ISelfS= 7).
                        Self-field    : sphere-specific E.n sum rule (ISelfD= 2).
 1st derivatives      : Analytical E(r).r(x)/FMM algorithm (CHGder, D1EAlg=3).
                        Cavity 1st derivative terms included.
 Solvent              : Water, Eps=  78.355300 Eps(inf)=   1.777849
 ------------------------------------------------------------------------------
 Spheres list:
 ISph  on   Nord     Re0    Alpha      Xe            Ye            Ze
    1   N      1    1.8900  1.000     -0.691877     -1.157533     -0.031626
    2   N      2    1.8900  1.000     -0.066814      0.030496     -0.003803
    3   C      3    1.8500  1.000     -0.897733      1.103145      0.027412
    4   C      4    1.8500  1.000     -2.109881      0.499375      0.020933
    5   N      5    1.8900  1.000     -1.947827     -0.869317     -0.017927
    6   H      6    1.2000  1.000     -0.575587      2.135750      0.049654
    7   H      7    1.2000  1.000     -3.083750      0.959517      0.037214
    8   H      8    1.2000  1.000      1.731151     -1.517975      0.049356
    9   C      9    1.8500  1.000      1.237377      0.101237     -0.010354
   10   O     10    1.5200  1.000      1.765825      1.183815     -0.039408
   11   O     11    1.5200  1.000      2.171079     -0.911983      0.040575
 ------------------------------------------------------------------------------
 ------------------------------------------------------------------------------
 Atomic radii for non-electrostatic terms: SMD-CDS.
 ------------------------------------------------------------------------------
 Nuclear repulsion after PCM non-electrostatic terms =      367.1493396476 Hartrees.
 One-electron integrals computed using PRISM.
 NBasis=   167 RedAO= T EigKep=  2.39D-05  NBF=   167
 NBsUse=   167 1.00D-06 EigRej= -1.00D+00 NBFU=   167
 Initial guess from the checkpoint file:  "/scratch/gongke2021/PC/Gau-5548.chk"
 B after Tr=     0.000000    0.000000   -0.000000
         Rot=    0.999589    0.000641   -0.000412   -0.028654 Ang=   3.29 deg.
 ExpMin= 4.38D-02 ExpMax= 5.48D+03 ExpMxC= 8.25D+02 IAcc=2 IRadAn=         4 AccDes= 0.00D+00
 Harris functional with IExCor= 1009 and IRadAn=       4 diagonalized for initial guess.
 HarFok:  IExCor= 1009 AccDes= 0.00D+00 IRadAn=         4 IDoV= 1 UseB2=F ITyADJ=14
 ICtDFT=  3500011 ScaDFX=  1.000000  1.000000  1.000000  1.000000
 FoFCou: FMM=F IPFlag=           0 FMFlag=      100000 FMFlg1=           0
         NFxFlg=           0 DoJE=T BraDBF=F KetDBF=T FulRan=T
         wScrn=  0.000000 ICntrl=       500 IOpCl=  0 I1Cent=   200000004 NGrid=           0
         NMat0=    1 NMatS0=      1 NMatT0=    0 NMatD0=    1 NMtDS0=    0 NMtDT0=    0
 Petite list used in FoFCou.
 Keep R1 ints in memory in canonical form, NReq=118249495.
 Requested convergence on RMS density matrix=1.00D-08 within 128 cycles.
 Requested convergence on MAX density matrix=1.00D-06.
 Requested convergence on             energy=1.00D-06.
 No special actions if energy rises.
 Inv3:  Mode=1 IEnd=     3006003.
 Iteration    1 A*A^-1 deviation from unit magnitude is 3.11D-15 for    371.
 Iteration    1 A*A^-1 deviation from orthogonality  is 1.95D-15 for    622     90.
 Iteration    1 A^-1*A deviation from unit magnitude is 2.89D-15 for    379.
 Iteration    1 A^-1*A deviation from orthogonality  is 3.31D-11 for    440    422.
 Error on total polarization charges =  0.03335
 SCF Done:  E(RM062X) =  -430.552888084     A.U. after   15 cycles
            NFock= 15  Conv=0.48D-08     -V/T= 2.0059
 SMD-CDS (non-electrostatic) energy       (kcal/mol) =       3.30
 (included in total energy above)
 D1PCM: PCM CHGder 1st derivatives, ID1Alg=3 FixD1E=F DoIter=F DoCFld=F I1PDM=0.
 Calling FoFJK, ICntrl=      2127 FMM=F ISym2X=0 I1Cent= 0 IOpClX= 0 NMat=1 NMatS=1 NMatT=0.
 ***** Axes restored to original set *****
 -------------------------------------------------------------------
 Center     Atomic                   Forces (Hartrees/Bohr)
 Number     Number              X              Y              Z
 -------------------------------------------------------------------
      1        7           0.023595142    0.011480677   -0.000671608
      2        7           0.038974565   -0.027953744   -0.000480507
      3        6           0.011787133   -0.000198464    0.000269111
      4        6           0.012428925   -0.001916924    0.000596518
      5        7           0.002804414   -0.005320620   -0.000125749
      6        1          -0.001029886   -0.004430004   -0.000122446
      7        1           0.001905554   -0.001591889   -0.000087703
      8        1           0.305376317   -0.412769970   -0.009966393
      9        6          -0.148684713    0.025954145   -0.002456785
     10        8          -0.002531533    0.034657101    0.002342427
     11        8          -0.244625918    0.382089691    0.010703135
 -------------------------------------------------------------------
 Cartesian Forces:  Max     0.412769970 RMS     0.122725621

 GradGradGradGradGradGradGradGradGradGradGradGradGradGradGradGradGradGrad
 Berny optimization.
 Using GEDIIS/GDIIS optimizer.
 FormGI is forming the generalized inverse of G from B-inverse, IUseBI=4.
 Internal  Forces:  Max     0.512303874 RMS     0.079512853
 Search for a local minimum.
 Step number   4 out of a maximum of   55
 All quantities printed in internal units (Hartrees-Bohrs-Radians)
 Mixed Optimization -- RFO/linear search
 Update second derivatives using D2CorX and points    1    2    4    3
 DE=  9.92D-02 DEPred=-4.48D-02 R=-2.21D+00
 Trust test=-2.21D+00 RLast= 9.96D-01 DXMaxT set to 3.49D-01
 ITU= -1  1  1  0
 Use linear search instead of GDIIS.
     Eigenvalues ---    0.00273   0.01266   0.01598   0.02221   0.02340
     Eigenvalues ---    0.02366   0.02490   0.03615   0.15617   0.16001
     Eigenvalues ---    0.16067   0.21735   0.22836   0.24751   0.24998
     Eigenvalues ---    0.25748   0.36181   0.36196   0.43793   0.47688
     Eigenvalues ---    0.53363   0.57621   0.62065   0.66518   0.73718
     Eigenvalues ---    1.09235   1.16440
 RFO step:  Lambda=-4.26394199D-02 EMin= 2.73487640D-03
 Quartic linear search produced a step of -0.67458.
 Maximum step size (   0.349) exceeded in Quadratic search.
    -- Step size scaled by   0.952
 Iteration  1 RMS(Cart)=  0.10201839 RMS(Int)=  0.04812089
 Iteration  2 RMS(Cart)=  0.02466102 RMS(Int)=  0.01798029
 Iteration  3 RMS(Cart)=  0.01577790 RMS(Int)=  0.00052686
 Iteration  4 RMS(Cart)=  0.00006372 RMS(Int)=  0.00052549
 Iteration  5 RMS(Cart)=  0.00000001 RMS(Int)=  0.00052549
 Variable       Old X    -DE/DX   Delta X   Delta X   Delta X     New X
                                 (Linear)    (Quad)   (Total)
    R1        2.53737   0.01215  -0.01642   0.02018   0.00372   2.54109
    R2        2.43523  -0.00217   0.00676  -0.00423   0.00241   2.43764
    R3        2.56473   0.01217  -0.01607   0.02055   0.00457   2.56929
    R4        2.46822   0.08976   0.28213  -0.18369   0.09844   2.56665
    R5        2.55909   0.01443   0.03155  -0.01411   0.01753   2.57662
    R6        2.04453  -0.00374  -0.00304  -0.00144  -0.00448   2.04005
    R7        2.60555  -0.00512  -0.02433   0.01152  -0.01284   2.59272
    R8        2.03566   0.00086   0.00145   0.00001   0.00146   2.03712
    R9        1.41520   0.51230   0.42179   0.10192   0.52370   1.93890
   R10        2.27716   0.03122  -0.01217   0.01550   0.00333   2.28049
   R11        2.60550  -0.01351  -0.13074   0.06105  -0.06970   2.53580
    A1        1.82926   0.02047   0.05181  -0.02941   0.02222   1.85148
    A2        1.99848  -0.02553  -0.04547   0.01579  -0.02963   1.96885
    A3        2.10906   0.00822  -0.09823   0.11125   0.01298   2.12204
    A4        2.17564   0.01731   0.14366  -0.12710   0.01648   2.19213
    A5        1.76759   0.01115   0.02769  -0.00849   0.01941   1.78700
    A6        2.18035  -0.00821  -0.02117   0.00770  -0.01357   2.16677
    A7        2.33525  -0.00294  -0.00652   0.00079  -0.00583   2.32942
    A8        1.91507  -0.00171  -0.00832  -0.00180  -0.01005   1.90501
    A9        2.23788   0.00325   0.01166  -0.00480   0.00682   2.24470
   A10        2.13023  -0.00154  -0.00333   0.00655   0.00317   2.13340
   A11        1.91438  -0.00438  -0.02571   0.02386  -0.00201   1.91237
   A12        2.07907   0.01772  -0.01235   0.04927   0.03680   2.11587
   A13        2.26037  -0.07062  -0.23446   0.10203  -0.13262   2.12776
   A14        1.94348   0.05291   0.24696  -0.15257   0.09414   2.03762
   A15        1.76937   0.05007   0.02569   0.06242   0.08811   1.85748
    D1       -0.00064   0.00008   0.00116  -0.00386  -0.00235  -0.00299
    D2       -3.13985  -0.00005  -0.00697   0.02266   0.01410  -3.12575
    D3       -0.00189   0.00005   0.00159  -0.00381  -0.00258  -0.00447
    D4        0.00283  -0.00017  -0.00331   0.00963   0.00610   0.00892
    D5       -3.13832  -0.00017  -0.00384   0.01064   0.00672  -3.13160
    D6       -3.14126  -0.00006   0.00718  -0.01767  -0.01114   3.13079
    D7        0.00079  -0.00005   0.00665  -0.01666  -0.01052  -0.00973
    D8        3.08965  -0.00039   0.06166  -0.21027  -0.14958   2.94008
    D9       -0.07917   0.00128   0.08514  -0.27729  -0.19150  -0.27067
   D10       -0.04930  -0.00047   0.05096  -0.18118  -0.13087  -0.18017
   D11        3.06506   0.00121   0.07444  -0.24820  -0.17279   2.89227
   D12       -0.00382   0.00015   0.00415  -0.01136  -0.00742  -0.01125
   D13       -3.14019  -0.00007  -0.00023   0.00042   0.00025  -3.13995
   D14        3.13726   0.00015   0.00476  -0.01251  -0.00814   3.12912
   D15        0.00089  -0.00008   0.00038  -0.00073  -0.00047   0.00042
   D16        0.00382  -0.00017  -0.00378   0.01024   0.00654   0.01036
   D17        3.14057   0.00006   0.00027  -0.00072  -0.00053   3.14004
   D18        0.03246  -0.00080  -0.02662   0.06720   0.04226   0.07472
   D19       -3.13467   0.00049  -0.00330   0.00656   0.00159  -3.13308
         Item               Value     Threshold  Converged?
 Maximum Force            0.512304     0.000450     NO 
 RMS     Force            0.079513     0.000300     NO 
 Maximum Displacement     0.429515     0.001800     NO 
 RMS     Displacement     0.127688     0.001200     NO 
 Predicted change in Energy=-7.568455D-02
 GradGradGradGradGradGradGradGradGradGradGradGradGradGradGradGradGradGrad

                          Input orientation:                          
 ---------------------------------------------------------------------
 Center     Atomic      Atomic             Coordinates (Angstroms)
 Number     Number       Type             X           Y           Z
 ---------------------------------------------------------------------
      1          7           0        0.830186   -1.118503    0.121652
      2          7           0        0.129854    0.026435    0.038985
[...]
    R9        1.84657   0.00001   0.00000   0.00003   0.00003   1.84660
   R10        2.27440  -0.00012   0.00000  -0.00014  -0.00014   2.27426
   R11        2.48996  -0.00006   0.00000  -0.00006  -0.00006   2.48991
    A1        1.87485  -0.00001   0.00000  -0.00000  -0.00000   1.87485
    A2        1.93829   0.00000   0.00000   0.00001   0.00001   1.93830
    A3        2.11589  -0.00000   0.00000   0.00002   0.00002   2.11591
    A4        2.22901  -0.00000   0.00000  -0.00003  -0.00003   2.22898
    A5        1.80821   0.00001   0.00000   0.00002   0.00002   1.80823
    A6        2.13953  -0.00001   0.00000  -0.00005  -0.00005   2.13948
    A7        2.33545   0.00000   0.00000   0.00003   0.00003   2.33548
    A8        1.89547  -0.00001   0.00000  -0.00003  -0.00003   1.89545
    A9        2.26283   0.00001   0.00000   0.00003   0.00003   2.26286
   A10        2.12488   0.00000   0.00000   0.00000   0.00000   2.12488
   A11        1.90795   0.00000   0.00000   0.00000   0.00000   1.90796
   A12        2.11130   0.00003   0.00000   0.00009   0.00009   2.11139
   A13        2.00594  -0.00003   0.00000  -0.00009  -0.00009   2.00585
   A14        2.16595  -0.00001   0.00000   0.00000   0.00000   2.16595
   A15        1.96808  -0.00005   0.00000  -0.00022  -0.00022   1.96786
    D1       -0.00014   0.00000   0.00000   0.00014   0.00014  -0.00000
    D2       -3.14117  -0.00000   0.00000  -0.00043  -0.00043   3.14159
    D3        0.00009  -0.00000   0.00000  -0.00009  -0.00009   0.00000
    D4        0.00012  -0.00000   0.00000  -0.00012  -0.00012   0.00000
    D5        3.14148   0.00000   0.00000   0.00012   0.00012  -3.14159
    D6        3.14111   0.00000   0.00000   0.00049   0.00049  -3.14159
    D7       -0.00071   0.00001   0.00000   0.00072   0.00072   0.00001
    D8        3.14085   0.00001   0.00000   0.00079   0.00079  -3.14155
    D9       -0.00077   0.00000   0.00000   0.00082   0.00082   0.00005
   D10       -0.00009   0.00000   0.00000   0.00012   0.00012   0.00004
   D11        3.14148  -0.00000   0.00000   0.00015   0.00015  -3.14155
   D12       -0.00006  -0.00000   0.00000   0.00006   0.00006  -0.00000
   D13        3.14150   0.00000   0.00000   0.00009   0.00009  -3.14159
   D14       -3.14138  -0.00000   0.00000  -0.00021  -0.00021   3.14159
   D15        0.00018  -0.00000   0.00000  -0.00019  -0.00019  -0.00000
   D16       -0.00002   0.00000   0.00000   0.00002   0.00002  -0.00000
   D17       -3.14159   0.00000   0.00000  -0.00001  -0.00001   3.14159
   D18        0.00067  -0.00001   0.00000  -0.00065  -0.00065   0.00002
   D19       -3.14095  -0.00001   0.00000  -0.00062  -0.00062  -3.14157
         Item               Value     Threshold  Converged?
 Maximum Force            0.000118     0.000450     YES
 RMS     Force            0.000023     0.000300     YES
 Maximum Displacement     0.001180     0.001800     YES
 RMS     Displacement     0.000277     0.001200     YES
 Predicted change in Energy=-3.298583D-08
 Optimization completed.
    -- Stationary point found.
                           ----------------------------
                           !   Optimized Parameters   !
                           ! (Angstroms and Degrees)  !
 --------------------------                            --------------------------
 ! Name  Definition              Value          Derivative Info.                !
 --------------------------------------------------------------------------------
 ! R1    R(1,2)                  1.3485         -DE/DX =    0.0                 !
 ! R2    R(1,5)                  1.2854         -DE/DX =    0.0                 !
 ! R3    R(2,3)                  1.3609         -DE/DX =    0.0                 !
 ! R4    R(2,9)                  1.4201         -DE/DX =    0.0                 !
 ! R5    R(3,4)                  1.3658         -DE/DX =    0.0                 !
 ! R6    R(3,6)                  1.0788         -DE/DX =    0.0                 !
 ! R7    R(4,5)                  1.3712         -DE/DX =    0.0                 !
 ! R8    R(4,7)                  1.0781         -DE/DX =    0.0                 !
 ! R9    R(8,11)                 0.9772         -DE/DX =    0.0                 !
 ! R10   R(9,10)                 1.2036         -DE/DX =   -0.0001              !
 ! R11   R(9,11)                 1.3176         -DE/DX =   -0.0001              !
 ! A1    A(2,1,5)              107.4211         -DE/DX =    0.0                 !
 ! A2    A(1,2,3)              111.0558         -DE/DX =    0.0                 !
 ! A3    A(1,2,9)              121.2315         -DE/DX =    0.0                 !
 ! A4    A(3,2,9)              127.7127         -DE/DX =    0.0                 !
 ! A5    A(2,3,4)              103.6027         -DE/DX =    0.0                 !
 ! A6    A(2,3,6)              122.5862         -DE/DX =    0.0                 !
 ! A7    A(4,3,6)              133.8112         -DE/DX =    0.0                 !
 ! A8    A(3,4,5)              108.6026         -DE/DX =    0.0                 !
 ! A9    A(3,4,7)              129.6508         -DE/DX =    0.0                 !
 ! A10   A(5,4,7)              121.7466         -DE/DX =    0.0                 !
 ! A11   A(1,5,4)              109.3178         -DE/DX =    0.0                 !
 ! A12   A(2,9,10)             120.9687         -DE/DX =    0.0                 !
 ! A13   A(2,9,11)             114.9317         -DE/DX =    0.0                 !
 ! A14   A(10,9,11)            124.0996         -DE/DX =    0.0                 !
 ! A15   A(8,11,9)             112.7625         -DE/DX =   -0.0001              !
 ! D1    D(5,1,2,3)             -0.0079         -DE/DX =    0.0                 !
 ! D2    D(5,1,2,9)            180.0241         -DE/DX =    0.0                 !
 ! D3    D(2,1,5,4)              0.0053         -DE/DX =    0.0                 !
 ! D4    D(1,2,3,4)              0.007          -DE/DX =    0.0                 !
 ! D5    D(1,2,3,6)           -180.0064         -DE/DX =    0.0                 !
 ! D6    D(9,2,3,4)           -180.0276         -DE/DX =    0.0                 !
 ! D7    D(9,2,3,6)             -0.0409         -DE/DX =    0.0                 !
 ! D8    D(1,2,9,10)          -180.0428         -DE/DX =    0.0                 !
 ! D9    D(1,2,9,11)            -0.0443         -DE/DX =    0.0                 !
 ! D10   D(3,2,9,10)            -0.0051         -DE/DX =    0.0                 !
 ! D11   D(3,2,9,11)          -180.0066         -DE/DX =    0.0                 !
 ! D12   D(2,3,4,5)             -0.0036         -DE/DX =    0.0                 !
 ! D13   D(2,3,4,7)           -180.0051         -DE/DX =    0.0                 !
 ! D14   D(6,3,4,5)            180.012          -DE/DX =    0.0                 !
 ! D15   D(6,3,4,7)              0.0105         -DE/DX =    0.0                 !
 ! D16   D(3,4,5,1)             -0.001          -DE/DX =    0.0                 !
 ! D17   D(7,4,5,1)            180.0004         -DE/DX =    0.0                 !
 ! D18   D(2,9,11,8)             0.0384         -DE/DX =    0.0                 !
 ! D19   D(10,9,11,8)         -179.9632         -DE/DX =    0.0                 !
 --------------------------------------------------------------------------------
 GradGradGradGradGradGradGradGradGradGradGradGradGradGradGradGradGradGrad


 ----------------------------------------------------------------------

 Electric dipole moment (input orientation):
 (Debye = 10**-18 statcoulomb cm , SI units = C m)
                  (au)            (Debye)         (10**-30 SI)
   Tot        0.952516D+00      0.242105D+01      0.807577D+01
   x          0.828844D+00      0.210671D+01      0.702723D+01
   y          0.469363D+00      0.119300D+01      0.397943D+01
   z          0.194533D-02      0.494452D-02      0.164932D-01

 Dipole polarizability, Alpha (input orientation).
 (esu units = cm**3 , SI units = C**2 m**2 J**-1)
 Alpha(0;0):
               (au)            (10**-24 esu)      (10**-40 SI)
   iso        0.804337D+02      0.119190D+02      0.132617D+02
   aniso      0.535747D+02      0.793895D+01      0.883328D+01
   xx         0.102616D+03      0.152061D+02      0.169191D+02
   yx        -0.548008D+01     -0.812064D+00     -0.903543D+00
   yy         0.929388D+02      0.137721D+02      0.153235D+02
   zx        -0.455014D+00     -0.674261D-01     -0.750217D-01
   zy         0.827813D+00      0.122669D+00      0.136488D+00
   zz         0.457462D+02      0.677889D+01      0.754253D+01

 ----------------------------------------------------------------------

 Dipole orientation:
     7          1.30991182         -2.19482736          0.30453440
     7          0.01625763         -0.00058075          0.23295883
     6         -0.48868091          0.85212604          2.60603005
     6          0.56739351         -0.94083878          4.13279438
     7          1.64475185         -2.76576503          2.64176699
     1         -1.50866394          2.58192190          2.95725457
     1          0.62727167         -1.04508266          6.16649572
     1          0.99317777         -1.65246668         -3.72286285
     6         -0.65691732          1.14229842         -2.09984699
     8         -1.81295744          3.10025791         -2.15330233
     8          0.07838843         -0.10050258         -4.12831614

 Electric dipole moment (dipole orientation):
 (Debye = 10**-18 statcoulomb cm , SI units = C m)
                  (au)            (Debye)         (10**-30 SI)
   Tot        0.952516D+00      0.242105D+01      0.807577D+01
   x          0.000000D+00      0.000000D+00      0.000000D+00
   y          0.000000D+00      0.000000D+00      0.000000D+00
   z          0.952516D+00      0.242105D+01      0.807577D+01

 Dipole polarizability, Alpha (dipole orientation).
 (esu units = cm**3 , SI units = C**2 m**2 J**-1)
 Alpha(0;0):
               (au)            (10**-24 esu)      (10**-40 SI)
   iso        0.804337D+02      0.119190D+02      0.132617D+02
   aniso      0.535747D+02      0.793895D+01      0.883328D+01
   xx         0.597393D+02      0.885245D+01      0.984968D+01
   yx        -0.237511D+02     -0.351955D+01     -0.391603D+01
   yy         0.859952D+02      0.127432D+02      0.141787D+02
   zx         0.351084D+01      0.520254D+00      0.578860D+00
   zy        -0.601759D+01     -0.891715D+00     -0.992166D+00
   zz         0.955665D+02      0.141615D+02      0.157568D+02

 ----------------------------------------------------------------------
 1\1\GINC-NODE5\Freq\RM062X\6-31+G(d,p)\C3H3N3O2\GONGKE2021\06-Jul-2023
 \0\\#N Geom=AllCheck Guess=TCheck SCRF=Check GenChk RM062X/6-31+G(d,p)
  Freq\\test\\0,1\N,0.8066090714,-1.0972167081,-0.030527303\N,0.1095043
 409,0.0568316548,-0.0070829496\C,0.9438524719,1.1318576055,0.005640703
 7\C,2.1894405517,0.5719516907,-0.0114700309\N,2.055415564,-0.792501797
 4,-0.0333086207\H,0.5819928771,2.1479640901,0.0246338618\H,3.157246819
 ,1.0469003861,-0.0096618063\H,-1.2116553379,-1.8582132891,-0.030458196
 8\C,-1.3105239417,0.0592020039,0.0023579444\O,-1.9279852637,1.09207535
 13,0.0240684749\O,-1.8680716629,-1.1345377778,-0.0143503075\\Version=E
 S64L-G16RevA.03\State=1-A\HF=-430.6679223\RMSD=4.517e-09\RMSF=2.908e-0
 5\ZeroPoint=0.0746416\Thermal=0.0807331\Dipole=0.8288437,0.469363,0.00
 19453\DipoleDeriv=0.4367367,-0.7479752,-0.0161054,-0.6776427,-0.400505
 8,0.0001703,-0.014908,0.0006301,-0.1557116,-2.184995,0.2981322,0.01890
 79,0.233636,-0.1173066,-0.0034797,0.0176357,-0.0038306,-0.000928,0.583
 852,-0.2563812,-0.0080497,0.3528648,-0.076471,-0.0031036,0.0023253,0.0
 006063,-0.0245268,-0.003551,0.2866035,0.0041379,0.2733406,-0.282572,-0
 .0046302,0.003875,-0.0047134,-0.1078786,-0.7559754,0.4864477,0.0110617
 ,-0.2125382,0.249814,0.0103616,-0.0005821,0.0059577,-0.2915845,0.18324
 93,0.0005971,0.0004628,-0.0140115,0.2171189,-0.0006013,0.000172,-0.000
 6279,0.2573761,0.1115262,-0.0367605,0.0001561,-0.0115,0.139227,-0.0015
 033,0.0005678,-0.0013312,0.2338837,0.54052,0.0143905,-0.0002711,0.0376
 61,0.6228191,0.0023605,0.0001353,0.0026097,0.466449,3.4404515,-0.16304
 91,-0.0208896,-0.3339439,2.9706848,0.0417795,-0.0239609,0.0406078,0.65
 64645,-1.4179437,0.517271,0.0145116,0.6788433,-1.5394833,-0.0215008,0.
 0173408,-0.0204606,-0.5381796,-0.9338708,-0.3992759,-0.0039223,-0.3267
 094,-1.7833252,-0.0198528,-0.002601,-0.0194478,-0.4953641\Polar=102.61
 60249,-5.4800763,92.9387662,-0.4550141,0.8278125,45.7462314\Quadrupole
 =-5.3155387,3.6334375,1.6821011,9.1944446,0.1993165,-0.0282984\PG=C01 
 [X(C3H3N3O2)]\NImag=0\\0.61017217,0.11626672,0.52700709,-0.00113754,0.
 00601833,0.11999888,-0.08250283,-0.00900238,-0.00009237,0.81377747,0.0
 6507288,-0.24746984,-0.00329374,0.06308677,0.67288816,0.00115516,-0.00
 285266,-0.07203716,-0.00343595,0.00895520,0.11257947,-0.02926257,-0.02
 883806,-0.00018255,-0.17131323,-0.08894180,-0.00078248,0.67958407,0.01
 664725,-0.09791581,-0.00202317,-0.09380232,-0.25621638,-0.00266792,-0.
 15481801,0.88898424,0.00056458,-0.00173414,0.01733253,-0.00086721,-0.0
 0269805,-0.06112431,-0.00599328,0.01351779,0.13193298,-0.03871432,-0.0
 3041531,-0.00011100,-0.09648400,-0.06720391,-0.00046504,-0.37194356,0.
 12717542,0.00400250,0.93697854,-0.11266475,-0.06190266,-0.00072684,0.0
 3842301,0.02718565,0.00008863,0.08509674,-0.16747556,-0.00214047,0.100
 36234,0.59895288,-0.00147573,-0.00124070,0.02448929,0.00128482,0.00073
 353,0.00816978,0.00330311,-0.00239916,-0.07095903,-0.00334193,0.007028
 91,0.13781465,-0.40136512,-0.05539268,0.00100726,-0.16912943,0.0616717
 1,0.00225143,0.02897990,0.01083742,0.00011437,-0.12176321,0.00808468,0
 .00044393,0.64187600,-0.11250510,-0.12845142,0.00013952,0.00065016,-0.
 02949136,-0.00097063,0.09884911,-0.05018766,-0.00174729,-0.00369341,-0
 .27961787,-0.00341843,-0.00328984,0.50307627,0.00005871,-0.00021696,-0
 .09410082,0.00124433,-0.00134931,0.02788805,0.00157186,-0.00120237,0.0
 1816845,0.00024819,-0.00349845,-0.07247349,-0.00335194,0.00646845,0.11
 506424,-0.00513864,-0.00444538,-0.00000405,0.01312582,-0.02471132,-0.0
 0050239,-0.09554047,0.11179044,0.00224364,0.00587863,0.01918968,0.0002
 9262,-0.00386605,0.00518266,0.00015057,0.08586901,-0.00192339,0.000536
 72,-0.00008175,0.00835137,-0.01559279,-0.00027513,0.10117757,-0.342166
 80,-0.00576498,-0.00091252,0.00345338,0.00003031,-0.00149783,0.0011980
 2,-0.00007610,-0.10658660,0.35285737,0.00003768,-0.00006412,0.00620463
 ,0.00004236,-0.00007771,-0.00207753,0.00206916,-0.00581946,-0.03147058
 ,-0.00003859,-0.00009833,0.00199794,0.00004104,-0.00011986,0.00640382,
 -0.00215187,0.00611762,0.02281293,0.00257578,0.00212115,0.00006767,-0.
 00303033,0.00190121,0.00009363,-0.00824266,-0.01220660,-0.00014798,-0.
 32110153,-0.12582416,-0.00027799,0.00590392,0.00157273,-0.00004935,0.0
 0013826,0.00021465,-0.00001263,0.32374086,-0.00187042,-0.00656660,-0.0
 0022630,0.00511704,-0.00237246,-0.00018266,0.01295344,0.01227926,0.000
 11356,-0.11956654,-0.11409451,-0.00060153,-0.02902443,-0.00796632,0.00
 015163,-0.00073594,-0.00021730,0.00004187,0.13299282,0.11742284,0.0000
 0253,-0.00025206,0.00774340,0.00014605,-0.00015928,0.00665491,0.000270
 32,0.00027123,0.00055678,-0.00017478,-0.00056083,-0.03266739,-0.000558
 47,-0.00004223,-0.00610672,-0.00002809,0.00003549,-0.00245568,0.000333
 42,0.00069674,0.02518336,-0.00147687,-0.00842807,-0.00014156,-0.004804
 32,-0.00546705,-0.00005766,0.00220733,0.00240282,0.00002322,-0.0002666
 5,0.00292761,0.00005389,-0.00210138,0.00184952,0.00003645,0.00012225,0
 .00001765,-0.00000083,-0.00008614,0.00034853,0.00000742,0.24109634,-0.
 00217967,-0.00123330,0.00000384,0.00257811,-0.00019399,-0.00002738,-0.
 00025363,-0.00195603,-0.00002284,0.00134967,0.00016590,-0.00001477,0.0
 0130292,0.00097306,0.00002800,0.00004755,-0.00004563,-0.00000025,0.000
 11376,-0.00000422,-0.00000377,-0.21484291,0.31189166,-0.00003840,0.000
 04665,-0.00087511,0.00007725,0.00002348,0.00051436,-0.00002230,-0.0000
 3883,-0.00052320,0.00002748,-0.00002518,0.00054407,0.00002726,0.000024
 94,-0.00122690,-0.00000028,-0.00000013,-0.00004332,0.00000357,-0.00000
 537,0.00018701,-0.00500960,0.00637621,0.00909875,-0.05770571,0.0422539
 7,0.00097895,-0.18633272,-0.01882362,0.00055760,-0.04388408,-0.0246834
 6,-0.00018953,0.01490222,-0.02130290,-0.00042509,0.04089087,0.01570253
 ,0.00005575,0.00050546,0.00045536,-0.00000425,0.00074417,-0.00062100,-
 0.00000347,0.02191565,0.02215807,0.00019993,0.64275715,0.02564562,0.01
 536243,0.00032029,-0.02936710,-0.12235038,-0.00095062,-0.02247442,0.01
 347944,0.00051678,-0.00774445,-0.00600839,-0.00010553,0.00662778,-0.01
 169586,-0.00036948,0.00038240,-0.00124594,0.00000016,-0.00075337,0.001
 06772,-0.00000823,-0.00989833,-0.04368690,-0.00058787,-0.18740872,0.96
 752044,0.00069445,0.00021433,-0.01415582,0.00039842,-0.00102240,-0.053
 89933,-0.00015460,0.00052572,-0.00843394,-0.00020524,-0.00002082,0.003
 13723,-0.00010405,-0.00042588,0.00823134,-0.00000569,-0.00000080,-0.00
 141220,-0.00000702,-0.00000724,0.00177112,-0.00033723,-0.00077477,-0.0
 0588761,-0.00602746,0.01412655,0.21031087,0.00468347,-0.01845196,-0.00
 029418,-0.06719098,0.06264258,0.00162459,0.00906168,0.00709652,0.00006
 401,-0.00212129,0.00599489,0.00011594,-0.01475651,0.00048003,0.0000823
 4,-0.00107299,0.00073155,0.00001887,-0.00021844,0.00001929,0.00000105,
 -0.00045468,-0.00465097,-0.00003271,-0.26868277,0.28141408,0.00603101,
 0.30978316,-0.00450180,0.00940600,0.00009326,0.04867080,-0.01163649,-0
 .00083601,-0.00823443,-0.00666785,-0.00006294,0.00404102,-0.00474955,-
 0.00010993,0.00835989,0.00403004,0.00005455,-0.00021569,0.00090629,0.0
 0001504,0.00012802,0.00000445,0.00000100,-0.01082075,0.00207646,-0.000
 02023,0.28442201,-0.55213348,-0.00989281,-0.34184354,0.68084849,-0.000
 06847,0.00019548,0.00536271,0.00138798,-0.00093415,0.01836628,-0.00019
 820,-0.00016043,0.00015940,0.00008352,-0.00012515,0.00040729,0.0002246
 9,0.00010075,-0.00233822,0.00000403,0.00000908,0.00009406,0.00000300,0
 .00000161,-0.00009831,-0.00013982,-0.00005335,0.00710061,0.00608647,-0
 .00987636,-0.08237990,-0.00763822,0.01325434,0.03660528,-0.00126536,-0
 .00566800,-0.00009062,-0.04611546,-0.04922746,-0.00043888,0.00035359,0
 .00956052,0.00018567,-0.00536483,-0.00028713,0.00002643,-0.00466899,-0
 .00479840,-0.00004691,-0.00002129,-0.00002782,-0.00000095,-0.00042389,
 0.00038721,0.00000403,-0.25615153,0.19437708,0.00476779,-0.16511025,-0
 .05642349,-0.00028261,0.03096935,0.01999447,0.00025500,0.44779865,0.01
 201266,-0.00877263,-0.00022344,-0.03470544,-0.01475012,-0.00028082,0.0
 0548349,0.00784315,0.00002258,-0.00339234,0.00409073,0.00009728,-0.007
 67962,-0.00186690,0.00001003,0.00010219,0.00031668,0.00000505,-0.00026
 021,0.00044713,0.00002194,0.24191098,-0.26798701,-0.00579366,-0.112152
 24,-0.26030908,-0.00272187,0.00656752,-0.12208436,-0.00241182,-0.10788
 699,0.66307241,0.00020701,-0.00011414,0.00003747,-0.00018568,-0.000177
 57,0.01496548,0.00011896,-0.00000340,0.00436092,-0.00002511,0.00007853
 ,-0.00046034,-0.00009552,-0.00000936,0.00049025,0.00000150,0.00000638,
 -0.00005408,-0.00000632,0.00001769,-0.00076848,0.00556572,-0.00551092,
 -0.00888866,-0.00122890,-0.00306569,-0.05728176,0.00002729,-0.00249627
 ,0.01672080,-0.00437896,0.01127474,0.03087839\\0.00002734,0.00000175,0
 .00001409,0.00000990,0.00002616,-0.00002346,0.00000044,0.00000788,0.00
 001406,-0.00001194,-0.00001219,0.00000367,-0.00001136,-0.00000104,-0.0
 0000807,0.00000323,0.00000090,-0.00000719,-0.00000125,0.00000075,0.000
 00023,-0.00002534,-0.00001266,0.00000896,0.00004389,-0.00007229,-0.000
 00218,-0.00004700,0.00010863,0.00001239,0.00001210,-0.00004790,-0.0000
 1249\\\@


 ARTHROPOD AXIOM: A COMPUTER SYSTEM IS LIKE A SPIDER'S WEB.
 YOU CANNOT PULL ON ONE END WITHOUT MAKING THE OTHER END MOVE.
     -- GREG WETTSTEIN
 Job cpu time:       0 days  0 hours 13 minutes 51.6 seconds.
 Elapsed time:       0 days  0 hours  0 minutes 42.4 seconds.
 File lengths (MBytes):  RWF=     57 Int=      0 D2E=      0 Chk=      6 Scr=      1
 Normal termination of Gaussian 16 at Thu Jul  6 20:52:36 2023.
