 Entering Gaussian System, Link 0=/opt/soft/g16/g16
 Initial command:
 /opt/soft/g16/l1.exe "/scratch/gongke2021/RC/Gau-24077.inp" -scrdir="/scratch/gongke2021/RC/"
 Entering Link 1 = /opt/soft/g16/l1.exe PID=     24078.
  
 Copyright (c) 1988,1990,1992,1993,1995,1998,2003,2009,2016,
            Gaussian, Inc.  All Rights Reserved.
  
 This is part of the Gaussian(R) 16 program.  It is based on
 the Gaussian(R) 09 system (copyright 2009, Gaussian, Inc.),
 the Gaussian(R) 03 system (copyright 2003, Gaussian, Inc.),
 the Gaussian(R) 98 system (copyright 1998, Gaussian, Inc.),
 the Gaussian(R) 94 system (copyright 1995, Gaussian, Inc.),
 the Gaussian 92(TM) system (copyright 1992, Gaussian, Inc.),
 the Gaussian 90(TM) system (copyright 1990, Gaussian, Inc.),
 the Gaussian 88(TM) system (copyright 1988, Gaussian, Inc.),
 the Gaussian 86(TM) system (copyright 1986, Carnegie Mellon
 University), and the Gaussian 82(TM) system (copyright 1983,
 Carnegie Mellon University). Gaussian is a federally registered
 trademark of Gaussian, Inc.
  
 This software contains proprietary and confidential information,
 including trade secrets, belonging to Gaussian, Inc.
  
 This software is provided under written license and may be
 used, copied, transmitted, or stored only in accord with that
 written license.
  
 The following legend is applicable only to US Government
 contracts under FAR:
  
                    RESTRICTED RIGHTS LEGEND
  
 Use, reproduction and disclosure by the US Government is
 subject to restrictions as set forth in subparagraphs (a)
 and (c) of the Commercial Computer Software - Restricted
 Rights clause in FAR 52.227-19.
  
 Gaussian, Inc.
 340 Quinnipiac St., Bldg. 40, Wallingford CT 06492
  
  
 ---------------------------------------------------------------
 Warning -- This program may not be used in any manner that
 competes with the business of Gaussian, Inc. or will provide
 assistance to any competitor of Gaussian, Inc.  The licensee
 of this program is prohibited from giving any competitor of
 Gaussian, Inc. access to this program.  By using this program,
 the user acknowledges that Gaussian, Inc. is engaged in the
 business of creating and licensing software in the field of
 computational chemistry and represents and warrants to the
 licensee that it is not a competitor of Gaussian, Inc. and that
 it will not use this program in any manner prohibited above.
 ---------------------------------------------------------------
  

 Cite this work as:
 Gaussian 16, Revision A.03,
 M. J. Frisch, G. W. Trucks, H. B. Schlegel, G. E. Scuseria, 
 M. A. Robb, J. R. Cheeseman, G. Scalmani, V. Barone, 
 G. A. Petersson, H. Nakatsuji, X. Li, M. Caricato, A. V. Marenich, 
 J. Bloino, B. G. Janesko, R. Gomperts, B. Mennucci, H. P. Hratchian, 
 J. V. Ortiz, A. F. Izmaylov, J. L. Sonnenberg, D. Williams-Young, 
 F. Ding, F. Lipparini, F. Egidi, J. Goings, B. Peng, A. Petrone, 
 T. Henderson, D. Ranasinghe, V. G. Zakrzewski, J. Gao, N. Rega, 
 G. Zheng, W. Liang, M. Hada, M. Ehara, K. Toyota, R. Fukuda, 
 J. Hasegawa, M. Ishida, T. Nakajima, Y. Honda, O. Kitao, H. Nakai, 
 T. Vreven, K. Throssell, J. A. Montgomery, Jr., J. E. Peralta, 
 F. Ogliaro, M. J. Bearpark, J. J. Heyd, E. N. Brothers, K. N. Kudin, 
 V. N. Staroverov, T. A. Keith, R. Kobayashi, J. Normand, 
 K. Raghavachari, A. P. Rendell, J. C. Burant, S. S. Iyengar, 
 J. Tomasi, M. Cossi, J. M. Millam, M. Klene, C. Adamo, R. Cammi, 
 J. W. Ochterski, R. L. Martin, K. Morokuma, O. Farkas, 
 J. B. Foresman, and D. J. Fox, Gaussian, Inc., Wallingford CT, 2016.
 
 ******************************************
 Gaussian 16:  ES64L-G16RevA.03 25-Dec-2016
                11-Jul-2023 
 ******************************************
 %mem=10GB
 %nprocshared=24
 Will use up to   24 processors via shared memory.
 -----------------------------------------------------
 # opt freq 6-31+g(d,p) m062x scrf=(SMD,solvent=water)
 -----------------------------------------------------
 1/18=20,19=15,26=3,38=1/1,3;
 2/9=110,12=2,17=6,18=5,40=1/2;
 3/5=1,6=6,7=111,11=2,25=1,30=1,70=32201,71=1,72=1,74=-55/1,2,3;
 4//1;
 5/5=2,38=5,53=1/2;
 6/7=2,8=2,9=2,10=2,28=1/1;
 7//1,2,3,16;
 1/18=20,19=15,26=3/3(2);
 2/9=110/2;
 99//99;
 2/9=110/2;
 3/5=1,6=6,7=111,11=2,25=1,30=1,70=32205,71=1,72=1,74=-55/1,2,3;
 4/5=5,16=3,69=1/1;
 5/5=2,38=5,53=1/2;
 7//1,2,3,16;
 1/18=20,19=15,26=3/3(-5);
 2/9=110/2;
 6/7=2,8=2,9=2,10=2,19=2,28=1/1;
 99/9=1/99;
 ----
 test
 ----
 Symbolic Z-matrix:
 Charge = -1 Multiplicity = 2
 N                     1.04473  -1.08903   0.00915 
 N                     0.87863   0.2199   -0.00497 
 C                     2.12211   0.70184   0.03811 
 C                     3.00689  -0.38472   0.07603 
 N                     2.28947  -1.50845   0.0556 
 H                     2.3073    1.76491   0.03805 
 H                     4.08452  -0.41017   0.11518 
 H                     0.24809  -1.73964  -0.02594 
 C                     0.03468   1.34499   0.10947 
 O                     0.68742   2.48219  -0.00169 
 O                    -1.21678   1.15225   0.08425 
 H                    -2.04148  -2.2046   -0.04879 
 O                    -1.22606  -2.73896  -0.11193 
 H                    -1.35656  -3.38011  -0.81643 
 H                    -2.35828   0.11498   0.04594 
 O                    -2.77215  -0.7554    0.12265 
 H                    -3.33695  -0.72301   0.90102 
 
 Add virtual bond connecting atoms H15        and O11        Dist= 2.92D+00.
 Add virtual bond connecting atoms H8         and O13        Dist= 3.37D+00.
 Add virtual bond connecting atoms O16        and H12        Dist= 3.08D+00.

 GradGradGradGradGradGradGradGradGradGradGradGradGradGradGradGradGradGrad
 Berny optimization.
 Initialization pass.
                           ----------------------------
                           !    Initial Parameters    !
                           ! (Angstroms and Degrees)  !
 --------------------------                            --------------------------
 ! Name  Definition              Value          Derivative Info.                !
 --------------------------------------------------------------------------------
 ! R1    R(1,2)                  1.3195         estimate D2E/DX2                !
 ! R2    R(1,5)                  1.3143         estimate D2E/DX2                !
 ! R3    R(1,8)                  1.0292         estimate D2E/DX2                !
 ! R4    R(2,3)                  1.3343         estimate D2E/DX2                !
 ! R5    R(2,9)                  1.4111         estimate D2E/DX2                !
 ! R6    R(3,4)                  1.4017         estimate D2E/DX2                !
 ! R7    R(3,6)                  1.0791         estimate D2E/DX2                !
 ! R8    R(4,5)                  1.3334         estimate D2E/DX2                !
 ! R9    R(4,7)                  1.0786         estimate D2E/DX2                !
 ! R10   R(8,13)                 1.783          estimate D2E/DX2                !
 ! R11   R(9,10)                 1.3159         estimate D2E/DX2                !
 ! R12   R(9,11)                 1.2665         estimate D2E/DX2                !
 ! R13   R(11,15)                1.5429         estimate D2E/DX2                !
 ! R14   R(12,13)                0.977          estimate D2E/DX2                !
 ! R15   R(12,16)                1.632          estimate D2E/DX2                !
 ! R16   R(13,14)                0.9615         estimate D2E/DX2                !
 ! R17   R(15,16)                0.9668         estimate D2E/DX2                !
 ! R18   R(16,17)                0.9622         estimate D2E/DX2                !
 ! A1    A(2,1,5)              115.8586         estimate D2E/DX2                !
 ! A2    A(2,1,8)              121.9589         estimate D2E/DX2                !
 ! A3    A(5,1,8)              122.1782         estimate D2E/DX2                !
 ! A4    A(1,2,3)              103.9244         estimate D2E/DX2                !
 ! A5    A(1,2,9)              149.9226         estimate D2E/DX2                !
 ! A6    A(3,2,9)              105.4723         estimate D2E/DX2                !
 ! A7    A(2,3,4)              108.0067         estimate D2E/DX2                !
 ! A8    A(2,3,6)              121.0489         estimate D2E/DX2                !
 ! A9    A(4,3,6)              130.9443         estimate D2E/DX2                !
 ! A10   A(3,4,5)              108.2553         estimate D2E/DX2                !
 ! A11   A(3,4,7)              130.532          estimate D2E/DX2                !
 ! A12   A(5,4,7)              121.2128         estimate D2E/DX2                !
 ! A13   A(1,5,4)              103.9549         estimate D2E/DX2                !
 ! A14   A(2,9,10)             112.6752         estimate D2E/DX2                !
 ! A15   A(2,9,11)             117.9072         estimate D2E/DX2                !
 ! A16   A(10,9,11)            128.3157         estimate D2E/DX2                !
 ! A17   A(9,11,15)            146.502          estimate D2E/DX2                !
 ! A18   A(13,12,16)           150.0168         estimate D2E/DX2                !
 ! A19   A(8,13,12)            112.3585         estimate D2E/DX2                !
 ! A20   A(8,13,14)            121.4191         estimate D2E/DX2                !
 ! A21   A(12,13,14)           107.3861         estimate D2E/DX2                !
 ! A22   A(11,15,16)           156.9249         estimate D2E/DX2                !
 ! A23   A(12,16,15)           126.8282         estimate D2E/DX2                !
 ! A24   A(12,16,17)           112.1883         estimate D2E/DX2                !
 ! A25   A(15,16,17)           106.5673         estimate D2E/DX2                !
 ! A26   L(1,8,13,11,-1)       174.9233         estimate D2E/DX2                !
 ! A27   L(1,8,13,11,-2)       179.0347         estimate D2E/DX2                !
 ! D1    D(5,1,2,3)             -0.1046         estimate D2E/DX2                !
 ! D2    D(5,1,2,9)           -167.6591         estimate D2E/DX2                !
 ! D3    D(8,1,2,3)           -179.3729         estimate D2E/DX2                !
 ! D4    D(8,1,2,9)             13.0726         estimate D2E/DX2                !
 ! D5    D(2,1,5,4)              0.1011         estimate D2E/DX2                !
 ! D6    D(8,1,5,4)            179.3677         estimate D2E/DX2                !
 ! D7    D(2,1,13,12)           -6.9421         estimate D2E/DX2                !
 ! D8    D(2,1,13,14)          120.852          estimate D2E/DX2                !
 ! D9    D(5,1,13,12)          174.3817         estimate D2E/DX2                !
 ! D10   D(5,1,13,14)          -57.8242         estimate D2E/DX2                !
 ! D11   D(1,2,3,4)              0.0617         estimate D2E/DX2                !
 ! D12   D(1,2,3,6)            179.9722         estimate D2E/DX2                !
 ! D13   D(9,2,3,4)            173.6271         estimate D2E/DX2                !
 ! D14   D(9,2,3,6)             -6.4624         estimate D2E/DX2                !
 ! D15   D(1,2,9,10)           177.9121         estimate D2E/DX2                !
 ! D16   D(1,2,9,11)           -13.0848         estimate D2E/DX2                !
 ! D17   D(3,2,9,10)            10.4475         estimate D2E/DX2                !
 ! D18   D(3,2,9,11)           179.4507         estimate D2E/DX2                !
 ! D19   D(2,3,4,5)             -0.0056         estimate D2E/DX2                !
 ! D20   D(2,3,4,7)            179.969          estimate D2E/DX2                !
 ! D21   D(6,3,4,5)           -179.9041         estimate D2E/DX2                !
 ! D22   D(6,3,4,7)              0.0705         estimate D2E/DX2                !
 ! D23   D(3,4,5,1)             -0.0533         estimate D2E/DX2                !
 ! D24   D(7,4,5,1)            179.9693         estimate D2E/DX2                !
 ! D25   D(2,9,11,15)            5.0203         estimate D2E/DX2                !
 ! D26   D(10,9,11,15)         172.0568         estimate D2E/DX2                !
 ! D27   D(9,11,15,16)          15.1984         estimate D2E/DX2                !
 ! D28   D(16,12,13,8)          -1.1216         estimate D2E/DX2                !
 ! D29   D(16,12,13,14)       -137.1304         estimate D2E/DX2                !
 ! D30   D(13,12,16,15)         13.3392         estimate D2E/DX2                !
 ! D31   D(13,12,16,17)       -120.3028         estimate D2E/DX2                !
 ! D32   D(11,15,16,12)        -25.5251         estimate D2E/DX2                !
 ! D33   D(11,15,16,17)        110.12           estimate D2E/DX2                !
 --------------------------------------------------------------------------------
 Trust Radius=3.00D-01 FncErr=1.00D-07 GrdErr=1.00D-06 EigMax=2.50D+02 EigMin=1.00D-04
 Number of steps in this run=     88 maximum allowed number of steps=    102.
 GradGradGradGradGradGradGradGradGradGradGradGradGradGradGradGradGradGrad

                          Input orientation:                          
 ---------------------------------------------------------------------
 Center     Atomic      Atomic             Coordinates (Angstroms)
 Number     Number       Type             X           Y           Z
 ---------------------------------------------------------------------
      1          7           0        1.044732   -1.089026    0.009145
      2          7           0        0.878634    0.219902   -0.004969
      3          6           0        2.122110    0.701839    0.038112
      4          6           0        3.006885   -0.384722    0.076031
      5          7           0        2.289474   -1.508449    0.055598
      6          1           0        2.307303    1.764912    0.038045
      7          1           0        4.084517   -0.410166    0.115175
      8          1           0        0.248093   -1.739638   -0.025937
      9          6           0        0.034680    1.344990    0.109468
     10          8           0        0.687422    2.482186   -0.001690
     11          8           0       -1.216778    1.152249    0.084246
     12          1           0       -2.041482   -2.204600   -0.048793
     13          8           0       -1.226062   -2.738958   -0.111931
     14          1           0       -1.356558   -3.380105   -0.816433
     15          1           0       -2.358276    0.114983    0.045942
     16          8           0       -2.772154   -0.755396    0.122648
     17          1           0       -3.336947   -0.723008    0.901025
 ---------------------------------------------------------------------
                    Distance matrix (angstroms):
                    1          2          3          4          5
     1  N    0.000000
     2  N    1.319500   0.000000
     3  C    2.090163   1.334298   0.000000
     4  C    2.085800   2.213952   1.401742   0.000000
     5  N    1.314327   2.231890   2.216684   1.333364   0.000000
     6  H    3.120879   2.104757   1.079083   2.260926   3.273457
     7  H    3.116470   3.269420   2.256886   1.078643   2.105221
     8  H    1.029155   2.058596   3.078450   3.075244   2.056048
     9  C    2.637177   1.411091   2.185429   3.439044   3.637185
    10  O    3.589058   2.270352   2.286820   3.688510   4.300583
    11  O    3.184867   2.295208   3.369447   4.494627   4.401583
    12  H    3.282161   3.795683   5.078429   5.367825   4.387790
    13  O    2.809527   3.632635   4.803317   4.847226   3.728433
    14  H    3.420061   4.314465   5.430805   5.367350   4.190117
    15  H    3.609911   3.239010   4.518664   5.388466   4.923130
    16  O    3.833120   3.780972   5.107299   5.791102   5.117779
    17  H    4.486483   4.413732   5.707549   6.406189   5.743542
                    6          7          8          9         10
     6  H    0.000000
     7  H    2.809876   0.000000
     8  H    4.065256   4.062703   0.000000
     9  C    2.312196   4.413817   3.094966   0.000000
    10  O    1.772026   4.463139   4.244690   1.315918   0.000000
    11  O    3.577239   5.526828   3.243608   1.266465   2.324241
    12  H    5.888675   6.385510   2.336422   4.115226   5.423568
    13  O    5.726430   5.803197   1.783022   4.279851   5.561827
    14  H    6.373791   6.268471   2.427122   5.011922   6.261638
    15  H    4.948733   6.464531   3.199679   2.691318   3.857745
    16  O    5.670978   6.865361   3.180048   3.505726   4.739838
    17  H    6.228326   7.469509   3.839962   4.033739   5.223381
                   11         12         13         14         15
    11  O    0.000000
    12  H    3.459229   0.000000
    13  O    3.896160   0.976952   0.000000
    14  H    4.623093   1.562115   0.961469   0.000000
    15  H    1.542856   2.343032   3.074380   3.736679   0.000000
    16  O    2.461661   1.632013   2.525856   3.126481   0.966819
    17  H    2.945986   2.185292   3.089655   3.732528   1.546348
                   16         17
    16  O    0.000000
    17  H    0.962243   0.000000
 Stoichiometry    C3H7N3O4(1-,2)
 Framework group  C1[X(C3H7N3O4)]
 Deg. of freedom    45
 Full point group                 C1      NOp   1
 Largest Abelian subgroup         C1      NOp   1
 Largest concise Abelian subgroup C1      NOp   1
                         Standard orientation:                         
 ---------------------------------------------------------------------
 Center     Atomic      Atomic             Coordinates (Angstroms)
 Number     Number       Type             X           Y           Z
 ---------------------------------------------------------------------
      1          7           0        0.372247   -1.148519    0.011973
      2          7           0        0.694738    0.129699   -0.044922
      3          6           0        2.028383    0.126534   -0.003283
      4          6           0        2.456203   -1.205827    0.078342
      5          7           0        1.378480   -1.990890    0.085204
      6          1           0        2.588379    1.048405   -0.034584
      7          1           0        3.450444   -1.620888    0.130102
      8          1           0       -0.606793   -1.464891   -0.011483
      9          6           0        0.319154    1.488092    0.024968
     10          8           0        1.341414    2.304892   -0.114544
     11          8           0       -0.916475    1.763898   -0.007960
     12          1           0       -2.908334   -1.064069   -0.044935
     13          8           0       -2.343906   -1.860597   -0.082355
     14          1           0       -2.699984   -2.433085   -0.767839
     15          1           0       -2.357601    1.213242   -0.026325
     16          8           0       -3.060207    0.556575    0.073029
     17          1           0       -3.573408    0.818323    0.843758
 ---------------------------------------------------------------------
 Rotational constants (GHZ):           1.5290540           1.0243762           0.6163138
 Standard basis: 6-31+G(d,p) (6D, 7F)
 There are   225 symmetry adapted cartesian basis functions of A   symmetry.
 There are   225 symmetry adapted basis functions of A   symmetry.
   225 basis functions,   369 primitive gaussians,   225 cartesian basis functions
    40 alpha electrons       39 beta electrons
       nuclear repulsion energy       555.9386142855 Hartrees.
 NAtoms=   17 NActive=   17 NUniq=   17 SFac= 1.00D+00 NAtFMM=   60 NAOKFM=F Big=F
 Integral buffers will be    131072 words long.
 Raffenetti 2 integral format.
 Two-electron integral symmetry is turned on.
 ------------------------------------------------------------------------------
 Polarizable Continuum Model (PCM)
 =================================
 Model                : PCM.
 Atomic radii         : SMD-Coulomb.
 Polarization charges : Total charges.
 Charge compensation  : None.
 Solution method      : On-the-fly selection.
 Cavity type          : VdW (van der Waals Surface) (Alpha=1.000).
 Cavity algorithm     : GePol (No added spheres)
                        Default sphere list used, NSphG=   17.
                        Lebedev-Laikov grids with approx.  5.0 points / Ang**2.
                        Smoothing algorithm: York/Karplus (Gamma=1.0000).
                        Polarization charges: spherical gaussians, with
                                              point-specific exponents (IZeta= 3).
                        Self-potential: point-specific (ISelfS= 7).
                        Self-field    : sphere-specific E.n sum rule (ISelfD= 2).
 1st derivatives      : Analytical E(r).r(x)/FMM algorithm (CHGder, D1EAlg=3).
                        Cavity 1st derivative terms included.
 Solvent              : Water, Eps=  78.355300 Eps(inf)=   1.777849
 ------------------------------------------------------------------------------
 Spheres list:
 ISph  on   Nord     Re0    Alpha      Xe            Ye            Ze
    1   N      1    1.8900  1.000      0.372247     -1.148519      0.011973
    2   N      2    1.8900  1.000      0.694738      0.129699     -0.044922
    3   C      3    1.8500  1.000      2.028383      0.126534     -0.003283
    4   C      4    1.8500  1.000      2.456203     -1.205827      0.078342
    5   N      5    1.8900  1.000      1.378480     -1.990890      0.085204
    6   H      6    1.2000  1.000      2.588379      1.048405     -0.034584
    7   H      7    1.2000  1.000      3.450444     -1.620888      0.130102
    8   H      8    1.2000  1.000     -0.606793     -1.464891     -0.011483
    9   C      9    1.8500  1.000      0.319154      1.488092      0.024968
   10   O     10    1.5200  1.000      1.341414      2.304892     -0.114544
   11   O     11    1.5200  1.000     -0.916475      1.763898     -0.007960
   12   H     12    1.2000  1.000     -2.908334     -1.064069     -0.044935
   13   O     13    1.5200  1.000     -2.343906     -1.860597     -0.082355
   14   H     14    1.2000  1.000     -2.699984     -2.433085     -0.767839
   15   H     15    1.2000  1.000     -2.357601      1.213242     -0.026325
   16   O     16    1.5200  1.000     -3.060207      0.556575      0.073029
   17   H     17    1.2000  1.000     -3.573408      0.818323      0.843758
 ------------------------------------------------------------------------------
 ------------------------------------------------------------------------------
 Atomic radii for non-electrostatic terms: SMD-CDS.
 ------------------------------------------------------------------------------
 Nuclear repulsion after PCM non-electrostatic terms =      555.9465997985 Hartrees.
 One-electron integrals computed using PRISM.
 NBasis=   225 RedAO= T EigKep=  1.89D-05  NBF=   225
 NBsUse=   225 1.00D-06 EigRej= -1.00D+00 NBFU=   225
 ExpMin= 4.38D-02 ExpMax= 5.48D+03 ExpMxC= 8.25D+02 IAcc=3 IRadAn=         5 AccDes= 0.00D+00
 Harris functional with IExCor= 1009 and IRadAn=       5 diagonalized for initial guess.
 HarFok:  IExCor= 1009 AccDes= 0.00D+00 IRadAn=         5 IDoV= 1 UseB2=F ITyADJ=14
 ICtDFT=  3500011 ScaDFX=  1.000000  1.000000  1.000000  1.000000
 FoFCou: FMM=F IPFlag=           0 FMFlag=      100000 FMFlg1=           0
         NFxFlg=           0 DoJE=T BraDBF=F KetDBF=T FulRan=T
         wScrn=  0.000000 ICntrl=       500 IOpCl=  0 I1Cent=   200000004 NGrid=           0
         NMat0=    1 NMatS0=      1 NMatT0=    0 NMatD0=    1 NMtDS0=    0 NMtDT0=    0
 Petite list used in FoFCou.
 Initial guess <Sx>= 0.0000 <Sy>= 0.0000 <Sz>= 0.5000 <S**2>= 0.7500 S= 0.5000
 Requested convergence on RMS density matrix=1.00D-08 within 128 cycles.
 Requested convergence on MAX density matrix=1.00D-06.
 Requested convergence on             energy=1.00D-06.
 No special actions if energy rises.
 Inv3:  Mode=1 IEnd=     5386800.
 Iteration    1 A*A^-1 deviation from unit magnitude is 2.78D-15 for    375.
 Iteration    1 A*A^-1 deviation from orthogonality  is 2.22D-15 for   1332   1134.
 Iteration    1 A^-1*A deviation from unit magnitude is 2.66D-15 for    595.
 Iteration    1 A^-1*A deviation from orthogonality  is 2.09D-15 for    765    447.
 Error on total polarization charges =  0.06267
 SCF Done:  E(UM062X) =  -583.526949990     A.U. after   18 cycles
            NFock= 18  Conv=0.66D-08     -V/T= 2.0074
 <Sx>= 0.0000 <Sy>= 0.0000 <Sz>= 0.5000 <S**2>= 0.7638 S= 0.5069
 <L.S>=  0.00000000000    
 SMD-CDS (non-electrostatic) energy       (kcal/mol) =       5.01
 (included in total energy above)
 Annihilation of the first spin contaminant:
 S**2 before annihilation     0.7638,   after     0.7501

 **********************************************************************

            Population analysis using the SCF density.

 **********************************************************************

 Orbital symmetries:
 Alpha Orbitals:
       Occupied  (A) (A) (A) (A) (A) (A) (A) (A) (A) (A) (A) (A)
                 (A) (A) (A) (A) (A) (A) (A) (A) (A) (A) (A) (A)
                 (A) (A) (A) (A) (A) (A) (A) (A) (A) (A) (A) (A)
                 (A) (A) (A) (A)
       Virtual   (A) (A) (A) (A) (A) (A) (A) (A) (A) (A) (A) (A)
                 (A) (A) (A) (A) (A) (A) (A) (A) (A) (A) (A) (A)
                 (A) (A) (A) (A) (A) (A) (A) (A) (A) (A) (A) (A)
                 (A) (A) (A) (A) (A) (A) (A) (A) (A) (A) (A) (A)
                 (A) (A) (A) (A) (A) (A) (A) (A) (A) (A) (A) (A)
                 (A) (A) (A) (A) (A) (A) (A) (A) (A) (A) (A) (A)
                 (A) (A) (A) (A) (A) (A) (A) (A) (A) (A) (A) (A)
                 (A) (A) (A) (A) (A) (A) (A) (A) (A) (A) (A) (A)
                 (A) (A) (A) (A) (A) (A) (A) (A) (A) (A) (A) (A)
                 (A) (A) (A) (A) (A) (A) (A) (A) (A) (A) (A) (A)
                 (A) (A) (A) (A) (A) (A) (A) (A) (A) (A) (A) (A)
                 (A) (A) (A) (A) (A) (A) (A) (A) (A) (A) (A) (A)
                 (A) (A) (A) (A) (A) (A) (A) (A) (A) (A) (A) (A)
                 (A) (A) (A) (A) (A) (A) (A) (A) (A) (A) (A) (A)
                 (A) (A) (A) (A) (A) (A) (A) (A) (A) (A) (A) (A)
                 (A) (A) (A) (A) (A)
 Beta  Orbitals:
       Occupied  (A) (A) (A) (A) (A) (A) (A) (A) (A) (A) (A) (A)
                 (A) (A) (A) (A) (A) (A) (A) (A) (A) (A) (A) (A)
                 (A) (A) (A) (A) (A) (A) (A) (A) (A) (A) (A) (A)
                 (A) (A) (A)
       Virtual   (A) (A) (A) (A) (A) (A) (A) (A) (A) (A) (A) (A)
                 (A) (A) (A) (A) (A) (A) (A) (A) (A) (A) (A) (A)
                 (A) (A) (A) (A) (A) (A) (A) (A) (A) (A) (A) (A)
                 (A) (A) (A) (A) (A) (A) (A) (A) (A) (A) (A) (A)
                 (A) (A) (A) (A) (A) (A) (A) (A) (A) (A) (A) (A)
                 (A) (A) (A) (A) (A) (A) (A) (A) (A) (A) (A) (A)
                 (A) (A) (A) (A) (A) (A) (A) (A) (A) (A) (A) (A)
                 (A) (A) (A) (A) (A) (A) (A) (A) (A) (A) (A) (A)
                 (A) (A) (A) (A) (A) (A) (A) (A) (A) (A) (A) (A)
                 (A) (A) (A) (A) (A) (A) (A) (A) (A) (A) (A) (A)
                 (A) (A) (A) (A) (A) (A) (A) (A) (A) (A) (A) (A)
                 (A) (A) (A) (A) (A) (A) (A) (A) (A) (A) (A) (A)
                 (A) (A) (A) (A) (A) (A) (A) (A) (A) (A) (A) (A)
                 (A) (A) (A) (A) (A) (A) (A) (A) (A) (A) (A) (A)
                 (A) (A) (A) (A) (A) (A) (A) (A) (A) (A) (A) (A)
                 (A) (A) (A) (A) (A) (A)
 The electronic state is 2-A.
 Alpha  occ. eigenvalues --  -19.63396 -19.62986 -19.61411 -19.60146 -14.84340
 Alpha  occ. eigenvalues --  -14.84294 -14.78092 -10.69499 -10.56396 -10.55110
 Alpha  occ. eigenvalues --   -1.24547  -1.16941  -1.13288  -1.11196  -1.07876
 Alpha  occ. eigenvalues --   -1.02626  -0.92148  -0.78026  -0.71545  -0.69499
 Alpha  occ. eigenvalues --   -0.63514  -0.60875  -0.58784  -0.56603  -0.54958
 Alpha  occ. eigenvalues --   -0.51239  -0.50534  -0.49611  -0.48921  -0.47407
 Alpha  occ. eigenvalues --   -0.43790  -0.40202  -0.39476  -0.39048  -0.38324
 Alpha  occ. eigenvalues --   -0.36025  -0.35580  -0.32991  -0.31755  -0.15468
 Alpha virt. eigenvalues --    0.02773   0.04115   0.05494   0.05659   0.06505
 Alpha virt. eigenvalues --    0.06801   0.07390   0.08217   0.09949   0.10573
 Alpha virt. eigenvalues --    0.11489   0.12205   0.13270   0.14171   0.16254
 Alpha virt. eigenvalues --    0.16595   0.16752   0.17954   0.18178   0.19067
 Alpha virt. eigenvalues --    0.20921   0.21189   0.22201   0.22456   0.23658
 Alpha virt. eigenvalues --    0.23929   0.25334   0.25669   0.26569   0.27045
 Alpha virt. eigenvalues --    0.27319   0.28697   0.29113   0.29746   0.30182
 Alpha virt. eigenvalues --    0.30560   0.31285   0.31557   0.32744   0.34199
 Alpha virt. eigenvalues --    0.35231   0.36109   0.36822   0.38358   0.38515
 Alpha virt. eigenvalues --    0.39223   0.40877   0.42533   0.42970   0.43826
 Alpha virt. eigenvalues --    0.45775   0.48690   0.50757   0.51185   0.54739
 Alpha virt. eigenvalues --    0.56138   0.64225   0.74310   0.77237   0.78439
 Alpha virt. eigenvalues --    0.83300   0.86652   0.87806   0.91158   0.94201
 Alpha virt. eigenvalues --    0.95131   0.96916   0.97930   0.98603   1.00971
 Alpha virt. eigenvalues --    1.01467   1.03509   1.03716   1.05192   1.05995
 Alpha virt. eigenvalues --    1.10727   1.12815   1.13814   1.14868   1.16816
 Alpha virt. eigenvalues --    1.18709   1.21751   1.23287   1.23387   1.24126
 Alpha virt. eigenvalues --    1.27062   1.27716   1.29810   1.31606   1.33846
 Alpha virt. eigenvalues --    1.34716   1.36911   1.37499   1.38737   1.39201
 Alpha virt. eigenvalues --    1.41653   1.42599   1.43604   1.47996   1.49510
 Alpha virt. eigenvalues --    1.52039   1.53559   1.55290   1.56152   1.59820
 Alpha virt. eigenvalues --    1.60843   1.63209   1.65482   1.66703   1.68206
 Alpha virt. eigenvalues --    1.69076   1.74143   1.78319   1.79548   1.81078
 Alpha virt. eigenvalues --    1.82874   1.85405   1.87490   1.88498   1.91513
 Alpha virt. eigenvalues --    1.96911   1.98727   2.01618   2.02946   2.07628
 Alpha virt. eigenvalues --    2.10441   2.11500   2.15383   2.20595   2.22564
 Alpha virt. eigenvalues --    2.23968   2.27086   2.27729   2.31176   2.33198
 Alpha virt. eigenvalues --    2.33559   2.43135   2.45139   2.45525   2.47128
 Alpha virt. eigenvalues --    2.47872   2.50072   2.56159   2.58052   2.59647
 Alpha virt. eigenvalues --    2.61225   2.66207   2.67897   2.68758   2.70232
 Alpha virt. eigenvalues --    2.72091   2.73444   2.75651   2.77364   2.79162
 Alpha virt. eigenvalues --    2.81510   2.83541   2.84371   2.93815   2.99986
 Alpha virt. eigenvalues --    3.00698   3.09115   3.12028   3.12864   3.16605
 Alpha virt. eigenvalues --    3.19504   3.24653   3.32403   3.36707   3.44979
 Alpha virt. eigenvalues --    3.52225   3.64262   3.69734   3.78541   3.84094
 Alpha virt. eigenvalues --    4.07494   4.25417   4.30541   4.33423   4.41758
 Alpha virt. eigenvalues --    4.45069   4.53517   4.59713   4.64041   4.84550
  Beta  occ. eigenvalues --  -19.63398 -19.62986 -19.61241 -19.60087 -14.84134
  Beta  occ. eigenvalues --  -14.83860 -14.77642 -10.69402 -10.56504 -10.54914
  Beta  occ. eigenvalues --   -1.23512  -1.16381  -1.13271  -1.11182  -1.07434
  Beta  occ. eigenvalues --   -1.01584  -0.91162  -0.76919  -0.70875  -0.68956
  Beta  occ. eigenvalues --   -0.63319  -0.60865  -0.56579  -0.56206  -0.54481
  Beta  occ. eigenvalues --   -0.50961  -0.50204  -0.48655  -0.47723  -0.47188
  Beta  occ. eigenvalues --   -0.43662  -0.39961  -0.39060  -0.38672  -0.35515
  Beta  occ. eigenvalues --   -0.35142  -0.33947  -0.31486  -0.30447
  Beta virt. eigenvalues --    0.00210   0.02416   0.04029   0.04950   0.05225
  Beta virt. eigenvalues --    0.06331   0.07206   0.07798   0.08154   0.09859
  Beta virt. eigenvalues --    0.11086   0.11713   0.12131   0.13149   0.13676
  Beta virt. eigenvalues --    0.16272   0.16364   0.16652   0.17222   0.18092
  Beta virt. eigenvalues --    0.19023   0.20886   0.21092   0.22127   0.22279
  Beta virt. eigenvalues --    0.23425   0.23655   0.25206   0.25700   0.26219
  Beta virt. eigenvalues --    0.27020   0.27190   0.28639   0.28748   0.29686
  Beta virt. eigenvalues --    0.30051   0.30517   0.31336   0.31537   0.32899
  Beta virt. eigenvalues --    0.34202   0.35320   0.36003   0.36719   0.38317
  Beta virt. eigenvalues --    0.38357   0.39139   0.40783   0.42355   0.42869
  Beta virt. eigenvalues --    0.43793   0.45654   0.48721   0.50956   0.51550
  Beta virt. eigenvalues --    0.54984   0.56314   0.64633   0.73812   0.77834
  Beta virt. eigenvalues --    0.79304   0.83785   0.86814   0.87924   0.91413
  Beta virt. eigenvalues --    0.95232   0.95950   0.97179   0.98164   0.98622
  Beta virt. eigenvalues --    1.01907   1.03153   1.03777   1.04157   1.05506
  Beta virt. eigenvalues --    1.06092   1.10949   1.12867   1.13899   1.15018
  Beta virt. eigenvalues --    1.16839   1.18829   1.21967   1.23237   1.23496
  Beta virt. eigenvalues --    1.24457   1.27157   1.28316   1.30027   1.31740
  Beta virt. eigenvalues --    1.34176   1.35163   1.36965   1.38485   1.38977
  Beta virt. eigenvalues --    1.39254   1.42354   1.42861   1.43713   1.48529
  Beta virt. eigenvalues --    1.49875   1.52161   1.54575   1.55753   1.56579
  Beta virt. eigenvalues --    1.60248   1.61006   1.63288   1.65685   1.66760
  Beta virt. eigenvalues --    1.68360   1.69290   1.74194   1.78406   1.80006
  Beta virt. eigenvalues --    1.81205   1.82924   1.85583   1.87712   1.88770
  Beta virt. eigenvalues --    1.91739   1.97215   1.98992   2.01830   2.03208
  Beta virt. eigenvalues --    2.07756   2.10979   2.11898   2.15731   2.21131
  Beta virt. eigenvalues --    2.23072   2.24330   2.28051   2.28154   2.31289
  Beta virt. eigenvalues --    2.33614   2.33703   2.43340   2.45333   2.46046
  Beta virt. eigenvalues --    2.47526   2.48186   2.50407   2.56565   2.58759
  Beta virt. eigenvalues --    2.60094   2.61565   2.66332   2.67948   2.68846
  Beta virt. eigenvalues --    2.70531   2.72429   2.73919   2.76387   2.78012
  Beta virt. eigenvalues --    2.79642   2.82258   2.83562   2.84825   2.94162
  Beta virt. eigenvalues --    3.00210   3.00824   3.09301   3.12139   3.13044
  Beta virt. eigenvalues --    3.16942   3.19784   3.25158   3.32908   3.36982
  Beta virt. eigenvalues --    3.45002   3.52247   3.64815   3.69763   3.79047
  Beta virt. eigenvalues --    3.84219   4.07675   4.25435   4.30520   4.33621
  Beta virt. eigenvalues --    4.41806   4.45236   4.53527   4.60615   4.64046
  Beta virt. eigenvalues --    4.85663
          Condensed to atoms (all electrons):
               1          2          3          4          5          6
     1  N    8.491061  -0.892516  -0.315680   0.461906  -0.475472   0.014637
     2  N   -0.892516   7.835680   0.125750  -0.162762   0.234176  -0.028766
     3  C   -0.315680   0.125750   7.000657  -0.812737   0.057234   0.437688
     4  C    0.461906  -0.162762  -0.812737   6.479011  -0.020540  -0.021564
     5  N   -0.475472   0.234176   0.057234  -0.020540   7.533227   0.002528
     6  H    0.014637  -0.028766   0.437688  -0.021564   0.002528   0.443315
     7  H    0.041859  -0.025319  -0.016865   0.401237  -0.066147   0.000278
     8  H    0.295391  -0.017759   0.021169  -0.000815  -0.028432  -0.000067
     9  C   -0.217741   0.297608  -0.236823  -0.156393   0.093183  -0.040348
    10  O    0.028227  -0.131805  -0.139450   0.112531  -0.017818  -0.055632
    11  O   -0.042162  -0.121298   0.067303  -0.020475   0.015535  -0.001159
    12  H   -0.006086   0.008448   0.000242   0.000147  -0.002560  -0.000000
    13  O   -0.067343   0.006361   0.012962  -0.007866   0.024018   0.000012
    14  H    0.003488   0.000069  -0.000556   0.000466  -0.000750  -0.000000
    15  H    0.000107   0.003211  -0.002175   0.000537  -0.000331  -0.000001
    16  O    0.003037  -0.003945  -0.001110   0.001143   0.000326   0.000001
    17  H   -0.001346   0.000857  -0.000080   0.000064  -0.000243   0.000000
               7          8          9         10         11         12
     1  N    0.041859   0.295391  -0.217741   0.028227  -0.042162  -0.006086
     2  N   -0.025319  -0.017759   0.297608  -0.131805  -0.121298   0.008448
     3  C   -0.016865   0.021169  -0.236823  -0.139450   0.067303   0.000242
     4  C    0.401237  -0.000815  -0.156393   0.112531  -0.020475   0.000147
     5  N   -0.066147  -0.028432   0.093183  -0.017818   0.015535  -0.002560
     6  H    0.000278  -0.000067  -0.040348  -0.055632  -0.001159  -0.000000
     7  H    0.458632  -0.000052  -0.002590  -0.000515  -0.000005  -0.000000
     8  H   -0.000052   0.284148  -0.005706   0.000034   0.001716  -0.000318
     9  C   -0.002590  -0.005706   4.747791   0.335009   0.284532  -0.000131
    10  O   -0.000515   0.000034   0.335009   8.701599  -0.093446   0.000019
    11  O   -0.000005   0.001716   0.284532  -0.093446   8.778061   0.000362
    12  H   -0.000000  -0.000318  -0.000131   0.000019   0.000362   0.256872
    13  O    0.000022   0.000429  -0.010015   0.000276  -0.004357   0.267367
    14  H   -0.000000  -0.001024   0.000206  -0.000001   0.000132  -0.013799
    15  H   -0.000000  -0.000134  -0.000161   0.000424   0.024803   0.000819
    16  O   -0.000000   0.001739  -0.005747  -0.000504  -0.042812  -0.000664
    17  H   -0.000000  -0.000023   0.000905   0.000013   0.001500  -0.001452
              13         14         15         16         17
     1  N   -0.067343   0.003488   0.000107   0.003037  -0.001346
     2  N    0.006361   0.000069   0.003211  -0.003945   0.000857
     3  C    0.012962  -0.000556  -0.002175  -0.001110  -0.000080
     4  C   -0.007866   0.000466   0.000537   0.001143   0.000064
     5  N    0.024018  -0.000750  -0.000331   0.000326  -0.000243
     6  H    0.000012  -0.000000  -0.000001   0.000001   0.000000
     7  H    0.000022  -0.000000  -0.000000  -0.000000  -0.000000
     8  H    0.000429  -0.001024  -0.000134   0.001739  -0.000023
     9  C   -0.010015   0.000206  -0.000161  -0.005747   0.000905
    10  O    0.000276  -0.000001   0.000424  -0.000504   0.000013
    11  O   -0.004357   0.000132   0.024803  -0.042812   0.001500
    12  H    0.267367  -0.013799   0.000819  -0.000664  -0.001452
    13  O    8.469115   0.281063   0.002306  -0.075459   0.004025
    14  H    0.281063   0.300116  -0.000047   0.004026  -0.000060
    15  H    0.002306  -0.000047   0.233033   0.243368  -0.011649
    16  O   -0.075459   0.004026   0.243368   8.528947   0.282034
    17  H    0.004025  -0.000060  -0.011649   0.282034   0.300225
          Atomic-Atomic Spin Densities.
               1          2          3          4          5          6
     1  N    0.661778  -0.244736   0.168010   0.006949  -0.316818  -0.003748
     2  N   -0.244736   0.351208  -0.220695  -0.012532   0.125193   0.004681
     3  C    0.168010  -0.220695   0.508673   0.059812  -0.119271  -0.008607
     4  C    0.006949  -0.012532   0.059812  -0.205529  -0.009899  -0.000718
     5  N   -0.316818   0.125193  -0.119271  -0.009899   0.653783   0.000986
     6  H   -0.003748   0.004681  -0.008607  -0.000718   0.000986  -0.015661
     7  H    0.003672  -0.001109  -0.004679   0.007661  -0.004035   0.000021
     8  H    0.005603  -0.003584  -0.000127   0.000310  -0.004434   0.000003
     9  C   -0.069473   0.119795  -0.115847   0.012041   0.012971   0.004037
    10  O    0.005588  -0.026522   0.036378  -0.004765  -0.001060   0.004020
    11  O    0.014359  -0.037436   0.015466  -0.001046  -0.001669   0.000179
    12  H    0.000590  -0.000500  -0.000032   0.000031   0.000008   0.000000
    13  O   -0.005540   0.004721   0.000275  -0.000353   0.000149  -0.000002
    14  H    0.000041  -0.000146   0.000039  -0.000015   0.000057   0.000000
    15  H   -0.000033  -0.000651  -0.000378   0.000058  -0.000004  -0.000000
    16  O   -0.000771   0.001284   0.000331  -0.000137  -0.000130  -0.000000
    17  H   -0.000033  -0.000044  -0.000067   0.000008   0.000007  -0.000000
               7          8          9         10         11         12
     1  N    0.003672   0.005603  -0.069473   0.005588   0.014359   0.000590
     2  N   -0.001109  -0.003584   0.119795  -0.026522  -0.037436  -0.000500
     3  C   -0.004679  -0.000127  -0.115847   0.036378   0.015466  -0.000032
     4  C    0.007661   0.000310   0.012041  -0.004765  -0.001046   0.000031
     5  N   -0.004035  -0.004434   0.012971  -0.001060  -0.001669   0.000008
     6  H    0.000021   0.000003   0.004037   0.004020   0.000179   0.000000
     7  H    0.002936   0.000000  -0.000450  -0.000013   0.000003  -0.000000
     8  H    0.000000  -0.011272  -0.000567   0.000001   0.000070  -0.000102
     9  C   -0.000450  -0.000567   0.272305  -0.045551  -0.067590   0.000020
    10  O   -0.000013   0.000001  -0.045551   0.055746   0.013143  -0.000001
    11  O    0.000003   0.000070  -0.067590   0.013143   0.137291   0.000016
    12  H   -0.000000  -0.000102   0.000020  -0.000001   0.000016   0.000039
    13  O    0.000001   0.002765  -0.000221   0.000000  -0.000134  -0.000038
    14  H    0.000000  -0.000087  -0.000087  -0.000000  -0.000004  -0.000006
    15  H   -0.000000  -0.000017   0.000979  -0.000019  -0.001217   0.000007
    16  O    0.000000   0.000104  -0.000648   0.000040   0.000713  -0.000067
    17  H   -0.000000  -0.000001   0.000208  -0.000002  -0.000214   0.000005
              13         14         15         16         17
     1  N   -0.005540   0.000041  -0.000033  -0.000771  -0.000033
     2  N    0.004721  -0.000146  -0.000651   0.001284  -0.000044
     3  C    0.000275   0.000039  -0.000378   0.000331  -0.000067
     4  C   -0.000353  -0.000015   0.000058  -0.000137   0.000008
     5  N    0.000149   0.000057  -0.000004  -0.000130   0.000007
     6  H   -0.000002   0.000000  -0.000000  -0.000000  -0.000000
     7  H    0.000001   0.000000  -0.000000   0.000000  -0.000000
     8  H    0.002765  -0.000087  -0.000017   0.000104  -0.000001
     9  C   -0.000221  -0.000087   0.000979  -0.000648   0.000208
    10  O    0.000000  -0.000000  -0.000019   0.000040  -0.000002
    11  O   -0.000134  -0.000004  -0.001217   0.000713  -0.000214
    12  H   -0.000038  -0.000006   0.000007  -0.000067   0.000005
    13  O   -0.001562  -0.000189  -0.000006   0.000261  -0.000008
    14  H   -0.000189   0.000436  -0.000004  -0.000003  -0.000001
    15  H   -0.000006  -0.000004   0.000341   0.000123   0.000077
    16  O    0.000261  -0.000003   0.000123  -0.000399  -0.000156
    17  H   -0.000008  -0.000001   0.000077  -0.000156   0.000246
 Mulliken charges and spin densities:
               1          2
     1  N   -0.321365   0.225437
     2  N   -0.127990   0.058927
     3  C   -0.197528   0.319281
     4  C   -0.253888  -0.148124
     5  N   -0.347935   0.335838
     6  H    0.249078  -0.014810
     7  H    0.209466   0.004008
     8  H    0.449705  -0.011334
     9  C    0.916418   0.121920
    10  O   -0.738959   0.036983
    11  O   -0.848229   0.071930
    12  H    0.490733  -0.000029
    13  O   -0.902916   0.000120
    14  H    0.426670   0.000031
    15  H    0.505889  -0.000745
    16  O   -0.934379   0.000543
    17  H    0.425231   0.000025
 Sum of Mulliken charges =  -1.00000   1.00000
 Mulliken charges and spin densities with hydrogens summed into heavy atoms:
               1          2
     1  N    0.128340   0.214103
     2  N   -0.127990   0.058927
     3  C    0.051550   0.304471
     4  C   -0.044423  -0.144116
     5  N   -0.347935   0.335838
     9  C    0.916418   0.121920
    10  O   -0.738959   0.036983
    11  O   -0.848229   0.071930
    13  O    0.014487   0.000121
    16  O   -0.003259  -0.000176
 Electronic spatial extent (au):  <R**2>=           1749.3151
 Charge=             -1.0000 electrons
 Dipole moment (field-independent basis, Debye):
    X=             -3.4144    Y=             -5.9985    Z=              0.4265  Tot=              6.9154
 Quadrupole moment (field-independent basis, Debye-Ang):
   XX=            -59.1171   YY=            -91.6248   ZZ=            -61.6295
   XY=             -1.6700   XZ=             -1.0641   YZ=              6.7331
 Traceless Quadrupole moment (field-independent basis, Debye-Ang):
   XX=             11.6733   YY=            -20.8343   ZZ=              9.1610
   XY=             -1.6700   XZ=             -1.0641   YZ=              6.7331
 Octapole moment (field-independent basis, Debye-Ang**2):
  XXX=            -41.7937  YYY=            -42.9904  ZZZ=              0.1076  XYY=            -42.9983
  XXY=            -20.4609  XXZ=             12.3072  XZZ=            -20.4356  YZZ=             -0.1090
  YYZ=             -7.7508  XYZ=            -15.4152
 Hexadecapole moment (field-independent basis, Debye-Ang**3):
 XXXX=          -1092.4860 YYYY=          -1077.9567 ZZZZ=            -70.0203 XXXY=            -12.9197
 XXXZ=            -49.4478 YYYX=             16.6685 YYYZ=             40.7564 ZZZX=             -3.9107
 ZZZY=              9.1820 XXYY=           -354.1094 XXZZ=           -217.0387 YYZZ=           -157.8330
 XXYZ=             51.9349 YYXZ=             26.0125 ZZXY=              8.6454
 N-N= 5.559465997985D+02 E-N=-2.494092354895D+03  KE= 5.792579651279D+02
                          Isotropic Fermi Contact Couplings
        Atom                 a.u.       MegaHertz       Gauss      10(-4) cm-1
     1  N(14)              0.05628      18.18464       6.48873       6.06574
     2  N(14)              0.01402       4.52932       1.61617       1.51082
     3  C(13)              0.03930      44.18463      15.76618      14.73841
     4  C(13)             -0.03152     -35.43090     -12.64263     -11.81848
     5  N(14)              0.08096      26.15910       9.33422       8.72574
     6  H(1)              -0.00467     -20.89426      -7.45559      -6.96957
     7  H(1)               0.00105       4.69971       1.67697       1.56765
     8  H(1)              -0.00595     -26.60935      -9.49488      -8.87592
     9  C(13)              0.03000      33.72347      12.03337      11.24894
    10  O(17)              0.00653      -3.96030      -1.41313      -1.32101
    11  O(17)              0.01967     -11.92486      -4.25509      -3.97770
    12  H(1)              -0.00001      -0.03469      -0.01238      -0.01157
    13  O(17)             -0.00218       1.32335       0.47221       0.44142
    14  H(1)               0.00002       0.07888       0.02815       0.02631
    15  H(1)               0.00002       0.07624       0.02721       0.02543
    16  O(17)             -0.00054       0.32819       0.11711       0.10947
    17  H(1)               0.00003       0.11623       0.04147       0.03877
 --------------------------------------------------------
       Center         ----  Spin Dipole Couplings  ----
                      3XX-RR        3YY-RR        3ZZ-RR
 --------------------------------------------------------
     1   Atom       -0.320480     -0.320511      0.640990
     2   Atom       -0.168842     -0.135725      0.304567
     3   Atom       -0.128114     -0.126137      0.254251
     4   Atom        0.059445      0.054436     -0.113881
     5   Atom       -0.358249     -0.353454      0.711703
     6   Atom       -0.007113      0.009739     -0.002625
     7   Atom        0.002733      0.003451     -0.006184
     8   Atom        0.033245     -0.023256     -0.009989
     9   Atom       -0.077725     -0.063365      0.141091
    10   Atom       -0.072492     -0.066004      0.138496
    11   Atom       -0.166020     -0.153811      0.319831
    12   Atom        0.003592     -0.001418     -0.002174
    13   Atom       -0.000469     -0.000657      0.001126
    14   Atom        0.002350     -0.000628     -0.001723
    15   Atom        0.007145     -0.003065     -0.004080
    16   Atom        0.002210     -0.002224      0.000014
    17   Atom        0.002475     -0.001111     -0.001364
 --------------------------------------------------------
                        XY            XZ            YZ
 --------------------------------------------------------
     1   Atom       -0.000896     -0.038334      0.011745
     2   Atom       -0.004264      0.029282     -0.029427
     3   Atom        0.002906     -0.017814      0.021469
     4   Atom        0.007467      0.004964     -0.007958
     5   Atom        0.003911     -0.015626      0.027774
     6   Atom        0.017908     -0.001532      0.000656
     7   Atom        0.002971      0.000046     -0.000417
     8   Atom        0.020744     -0.000702      0.000754
     9   Atom       -0.009935      0.019953     -0.032734
    10   Atom       -0.004876      0.009054     -0.008826
    11   Atom        0.000718      0.022588     -0.008988
    12   Atom        0.000883      0.000099     -0.000022
    13   Atom        0.001460     -0.000219     -0.000772
    14   Atom        0.001826      0.000894      0.000346
    15   Atom        0.000650      0.000063     -0.000086
    16   Atom       -0.001330      0.000862     -0.000820
    17   Atom       -0.000329     -0.000898      0.000035
 --------------------------------------------------------


 ---------------------------------------------------------------------------------
              Anisotropic Spin Dipole Couplings in Principal Axis System
 ---------------------------------------------------------------------------------

       Atom             a.u.   MegaHertz   Gauss  10(-4) cm-1        Axes

              Baa    -0.3221   -12.424    -4.433    -4.144  0.9598  0.2785  0.0348
     1 N(14)  Bbb    -0.3205   -12.362    -4.411    -4.124 -0.2778  0.9604 -0.0228
              Bcc     0.6427    24.786     8.844     8.268 -0.0398  0.0122  0.9991
 
              Baa    -0.1708    -6.588    -2.351    -2.198  0.9957  0.0734 -0.0568
     2 N(14)  Bbb    -0.1375    -5.304    -1.893    -1.769 -0.0693  0.9951  0.0708
              Bcc     0.3083    11.892     4.243     3.967  0.0617 -0.0666  0.9959
 
              Baa    -0.1321   -17.728    -6.326    -5.913  0.7732 -0.6302  0.0707
     3 C(13)  Bbb    -0.1242   -16.661    -5.945    -5.557  0.6325  0.7745 -0.0142
              Bcc     0.2563    34.389    12.271    11.471 -0.0458  0.0556  0.9974
 
              Baa    -0.1144   -15.354    -5.479    -5.122 -0.0306  0.0484  0.9984
     4 C(13)  Bbb     0.0496     6.656     2.375     2.220 -0.5849  0.8091 -0.0571
              Bcc     0.0648     8.698     3.104     2.901  0.8106  0.5857 -0.0036
 
              Baa    -0.3611   -13.929    -4.970    -4.646  0.8501 -0.5260  0.0260
     5 N(14)  Bbb    -0.3515   -13.557    -4.837    -4.522  0.5265  0.8501 -0.0145
              Bcc     0.7127    27.485     9.807     9.168 -0.0145  0.0260  0.9996
 
              Baa    -0.0186    -9.950    -3.550    -3.319  0.8403 -0.5325  0.1022
     6 H(1)   Bbb    -0.0025    -1.312    -0.468    -0.438 -0.0802  0.0643  0.9947
              Bcc     0.0211    11.262     4.018     3.757  0.5362  0.8440 -0.0113
 
              Baa    -0.0062    -3.311    -1.182    -1.105 -0.0218  0.0498  0.9985
     7 H(1)   Bbb     0.0001     0.061     0.022     0.020  0.7490 -0.6608  0.0493
              Bcc     0.0061     3.250     1.160     1.084  0.6622  0.7489 -0.0229
 
              Baa    -0.0301   -16.059    -5.730    -5.357 -0.3113  0.9492 -0.0465
     8 H(1)   Bbb    -0.0099    -5.308    -1.894    -1.771 -0.0063  0.0468  0.9989
              Bcc     0.0400    21.367     7.624     7.127  0.9503  0.3113 -0.0086
 
              Baa    -0.0829   -11.118    -3.967    -3.709  0.9023  0.4307 -0.0174
     9 C(13)  Bbb    -0.0654    -8.769    -3.129    -2.925 -0.4207  0.8888  0.1816
              Bcc     0.1482    19.887     7.096     6.634  0.0937 -0.1565  0.9832
 
              Baa    -0.0752     5.440     1.941     1.815  0.8903  0.4550 -0.0189
    10 O(17)  Bbb    -0.0641     4.639     1.655     1.547 -0.4533  0.8894  0.0590
              Bcc     0.1393   -10.078    -3.596    -3.362  0.0437 -0.0440  0.9981
 
              Baa    -0.1672    12.096     4.316     4.035  0.9952 -0.0856 -0.0477
    11 O(17)  Bbb    -0.1539    11.135     3.973     3.714  0.0864  0.9961  0.0148
              Bcc     0.3210   -23.231    -8.289    -7.749  0.0463 -0.0188  0.9988
 
              Baa    -0.0022    -1.162    -0.415    -0.388 -0.0262  0.0590  0.9979
    12 H(1)   Bbb    -0.0016    -0.836    -0.298    -0.279 -0.1672  0.9839 -0.0626
              Bcc     0.0037     1.998     0.713     0.666  0.9856  0.1685  0.0159
 
              Baa    -0.0021     0.151     0.054     0.050 -0.6549  0.7437  0.1343
    13 O(17)  Bbb     0.0003    -0.025    -0.009    -0.008  0.6388  0.4498  0.6242
              Bcc     0.0017    -0.126    -0.045    -0.042 -0.4038 -0.4946  0.7696
 
              Baa    -0.0019    -1.021    -0.364    -0.340 -0.2339  0.0712  0.9696
    14 H(1)   Bbb    -0.0015    -0.791    -0.282    -0.264 -0.3935  0.9050 -0.1614
              Bcc     0.0034     1.812     0.647     0.604  0.8891  0.4193  0.1837
 
              Baa    -0.0041    -2.181    -0.778    -0.728 -0.0108  0.0901  0.9959
    15 H(1)   Bbb    -0.0031    -1.653    -0.590    -0.551 -0.0626  0.9939 -0.0906
              Bcc     0.0072     3.834     1.368     1.279  0.9980  0.0633  0.0051
 
              Baa    -0.0027     0.197     0.070     0.066  0.2188  0.9514  0.2166
    16 O(17)  Bbb    -0.0002     0.018     0.006     0.006 -0.3862 -0.1194  0.9147
              Bcc     0.0030    -0.214    -0.076    -0.071  0.8961 -0.2838  0.3413
 
              Baa    -0.0016    -0.836    -0.298    -0.279  0.2227  0.0866  0.9710
    17 H(1)   Bbb    -0.0011    -0.606    -0.216    -0.202  0.0646  0.9925 -0.1034
              Bcc     0.0027     1.442     0.515     0.481  0.9727 -0.0858 -0.2155
 

 ---------------------------------------------------------------------------------

 D1PCM: PCM CHGder 1st derivatives, ID1Alg=3 FixD1E=F DoIter=F DoCFld=F I1PDM=0.
 Calling FoFJK, ICntrl=      2127 FMM=F ISym2X=0 I1Cent= 0 IOpClX= 1 NMat=1 NMatS=1 NMatT=0.
 ***** Axes restored to original set *****
 -------------------------------------------------------------------
 Center     Atomic                   Forces (Hartrees/Bohr)
 Number     Number              X              Y              Z
 -------------------------------------------------------------------
      1        7          -0.075957162   -0.062863982    0.001953852
      2        7           0.017383765    0.076702090    0.003710356
      3        6           0.120204216   -0.010863473   -0.001809208
      4        6          -0.015096860    0.024806773   -0.001365674
      5        7           0.028033159   -0.017840993    0.002675118
      6        1           0.008925764   -0.015277560    0.000614416
      7        1           0.000472930    0.002003967   -0.000001101
      8        1          -0.000122048    0.003449060   -0.001089440
      9        6          -0.021225464    0.018873929   -0.026087006
     10        8          -0.064266708   -0.023836245    0.012930625
     11        8           0.009984554    0.022455436    0.006267213
     12        1           0.002001939    0.008813510   -0.000834341
     13        8           0.007666939   -0.013852184    0.001656532
     14        1           0.000043840   -0.002772521   -0.002667327
     15        1           0.016298213    0.008094136    0.000811210
     16        8          -0.031216810   -0.018134462    0.001164584
     17        1          -0.003130267    0.000242520    0.002070190
 -------------------------------------------------------------------
 Cartesian Forces:  Max     0.120204216 RMS     0.028621697

 GradGradGradGradGradGradGradGradGradGradGradGradGradGradGradGradGradGrad
 Berny optimization.
 FormGI is forming the generalized inverse of G from B-inverse, IUseBI=4.
 Internal  Forces:  Max     0.112825976 RMS     0.027232108
 Search for a local minimum.
 Step number   1 out of a maximum of   88
 All quantities printed in internal units (Hartrees-Bohrs-Radians)
 Mixed Optimization -- RFO/linear search
 Second derivative matrix not updated -- first step.
 ITU=  0
     Eigenvalues ---    0.00235   0.00696   0.00879   0.01080   0.01731
     Eigenvalues ---    0.01981   0.02136   0.02188   0.02308   0.02351
     Eigenvalues ---    0.02378   0.02650   0.02897   0.03250   0.05558
     Eigenvalues ---    0.07236   0.08816   0.10634   0.12628   0.14795
     Eigenvalues ---    0.15955   0.16000   0.16000   0.18983   0.20252
     Eigenvalues ---    0.22090   0.22819   0.23305   0.24578   0.24640
     Eigenvalues ---    0.36105   0.36159   0.41356   0.42378   0.43382
     Eigenvalues ---    0.51166   0.51856   0.53240   0.54994   0.55159
     Eigenvalues ---    0.55868   0.59252   0.61888   0.62959   0.76324
 RFO step:  Lambda=-1.31632645D-01 EMin= 2.35132582D-03
 Linear search not attempted -- first point.
 Maximum step size (   0.300) exceeded in Quadratic search.
    -- Step size scaled by   0.529
 Iteration  1 RMS(Cart)=  0.10149986 RMS(Int)=  0.00425947
 Iteration  2 RMS(Cart)=  0.00552344 RMS(Int)=  0.00058711
 Iteration  3 RMS(Cart)=  0.00000804 RMS(Int)=  0.00058709
 Iteration  4 RMS(Cart)=  0.00000000 RMS(Int)=  0.00058709
 Variable       Old X    -DE/DX   Delta X   Delta X   Delta X     New X
                                 (Linear)    (Quad)   (Total)
    R1        2.49349   0.06969   0.00000   0.05162   0.05222   2.54571
    R2        2.48372   0.03131   0.00000   0.02222   0.02234   2.50606
    R3        1.94482   0.00149   0.00000  -0.00031  -0.00011   1.94471
    R4        2.52146   0.09908   0.00000   0.07512   0.07513   2.59659
    R5        2.66658   0.06138   0.00000   0.05650   0.05682   2.72339
    R6        2.64891  -0.02200   0.00000  -0.02298  -0.02318   2.62572
    R7        2.03917  -0.01353   0.00000  -0.01453  -0.01453   2.02464
    R8        2.51969   0.01277   0.00000   0.00593   0.00579   2.52548
    R9        2.03834   0.00043   0.00000   0.00046   0.00046   2.03880
   R10        3.36942   0.00251   0.00000   0.00199   0.00219   3.37161
   R11        2.48673  -0.05356   0.00000  -0.03725  -0.03725   2.44947
   R12        2.39327   0.00027   0.00000   0.00094   0.00091   2.39418
   R13        2.91558   0.01381   0.00000   0.03528   0.03505   2.95063
   R14        1.84617   0.00563   0.00000   0.00450   0.00427   1.85044
   R15        3.08406  -0.00056   0.00000   0.00076   0.00041   3.08447
   R16        1.81691   0.00378   0.00000   0.00293   0.00293   1.81984
   R17        1.82702   0.02581   0.00000   0.02167   0.02134   1.84836
   R18        1.81838   0.00352   0.00000   0.00273   0.00273   1.82111
    A1        2.02211  -0.01488   0.00000  -0.01174  -0.01187   2.01024
    A2        2.12858   0.03201   0.00000   0.04045   0.04133   2.16991
    A3        2.13241  -0.01717   0.00000  -0.02878  -0.02954   2.10287
    A4        1.81382  -0.02306   0.00000  -0.01862  -0.01845   1.79537
    A5        2.61664  -0.09105   0.00000  -0.14206  -0.14145   2.47519
    A6        1.84084   0.11283   0.00000   0.15914   0.15871   1.99954
    A7        1.88507   0.00328   0.00000   0.00270   0.00267   1.88774
    A8        2.11270   0.01002   0.00000   0.01982   0.01983   2.13253
    A9        2.28541  -0.01329   0.00000  -0.02251  -0.02250   2.26291
   A10        1.88941   0.01895   0.00000   0.01606   0.01589   1.90530
   A11        2.27821  -0.01151   0.00000  -0.01173  -0.01165   2.26656
   A12        2.11556  -0.00744   0.00000  -0.00433  -0.00425   2.11131
   A13        1.81436   0.01571   0.00000   0.01161   0.01177   1.82612
   A14        1.96655   0.04994   0.00000   0.07371   0.07332   2.03988
   A15        2.05787   0.00962   0.00000   0.01145   0.01184   2.06971
   A16        2.23953  -0.05700   0.00000  -0.07719  -0.07804   2.16149
   A17        2.55694   0.02715   0.00000   0.04875   0.04883   2.60577
   A18        2.61829  -0.00214   0.00000  -0.01059  -0.01136   2.60692
   A19        1.96103  -0.00615   0.00000  -0.02499  -0.02530   1.93572
   A20        2.11916  -0.00089   0.00000   0.00229   0.00258   2.12174
   A21        1.87424   0.00212   0.00000   0.00657   0.00631   1.88056
   A22        2.73886   0.01454   0.00000   0.02331   0.02281   2.76167
   A23        2.21357  -0.01587   0.00000  -0.03140  -0.03260   2.18097
   A24        1.95805   0.00408   0.00000   0.00769   0.00818   1.96624
   A25        1.85995   0.00433   0.00000   0.00812   0.00858   1.86853
   A26        3.05299   0.03277   0.00000   0.08818   0.08902   3.14201
   A27        3.12475  -0.00330   0.00000   0.00115   0.00214   3.12689
    D1       -0.00183   0.00070   0.00000   0.00127   0.00176  -0.00007
    D2       -2.92620  -0.00882   0.00000  -0.01676  -0.01673  -2.94293
    D3       -3.13065   0.00451   0.00000   0.00790   0.00794  -3.12271
    D4        0.22816  -0.00501   0.00000  -0.01014  -0.01054   0.21761
    D5        0.00177  -0.00204   0.00000  -0.00339  -0.00373  -0.00196
    D6        3.13056  -0.00547   0.00000  -0.00948  -0.00909   3.12146
    D7       -0.12116  -0.00589   0.00000  -0.01042  -0.00999  -0.13115
    D8        2.10927  -0.00463   0.00000  -0.00787  -0.00759   2.10167
    D9        3.04353   0.00162   0.00000  -0.00190  -0.00153   3.04201
   D10       -1.00922   0.00289   0.00000   0.00065   0.00087  -1.00836
   D11        0.00108   0.00097   0.00000   0.00139   0.00096   0.00203
   D12        3.14111   0.00397   0.00000   0.00586   0.00552  -3.13656
   D13        3.03036  -0.01542   0.00000  -0.02203  -0.02133   3.00903
   D14       -0.11279  -0.01242   0.00000  -0.01756  -0.01677  -0.12956
   D15        3.10515   0.00260   0.00000  -0.00311  -0.00523   3.09992
   D16       -0.22837   0.00843   0.00000   0.02693   0.02660  -0.20177
   D17        0.18234   0.00123   0.00000  -0.01046  -0.01079   0.17156
   D18        3.13201   0.00706   0.00000   0.01959   0.02105  -3.13013
   D19       -0.00010  -0.00225   0.00000  -0.00350  -0.00326  -0.00336
   D20        3.14105   0.00139   0.00000   0.00212   0.00219  -3.13994
   D21       -3.13992  -0.00569   0.00000  -0.00862  -0.00834   3.13493
   D22        0.00123  -0.00205   0.00000  -0.00301  -0.00288  -0.00165
   D23       -0.00093   0.00247   0.00000   0.00398   0.00409   0.00316
   D24        3.14106  -0.00076   0.00000  -0.00101  -0.00079   3.14027
   D25        0.08762  -0.00307   0.00000  -0.01796  -0.01764   0.06998
   D26        3.00296   0.01901   0.00000   0.03876   0.03656   3.03952
   D27        0.26526   0.01054   0.00000   0.02102   0.01956   0.28483
   D28       -0.01958  -0.00664   0.00000  -0.01440  -0.01368  -0.03326
   D29       -2.39338  -0.00195   0.00000  -0.00169  -0.00113  -2.39451
   D30        0.23281  -0.00583   0.00000  -0.01104  -0.01057   0.22224
   D31       -2.09968   0.00089   0.00000   0.00363   0.00373  -2.09595
   D32       -0.44550   0.00654   0.00000   0.01507   0.01441  -0.43109
   D33        1.92196   0.00064   0.00000   0.00210   0.00188   1.92384
         Item               Value     Threshold  Converged?
 Maximum Force            0.112826     0.000450     NO 
 RMS     Force            0.027232     0.000300     NO 
 Maximum Displacement     0.458416     0.001800     NO 
 RMS     Displacement     0.100338     0.001200     NO 
 Predicted change in Energy=-5.749738D-02
 GradGradGradGradGradGradGradGradGradGradGradGradGradGradGradGradGradGrad

                          Input orientation:                          
 ---------------------------------------------------------------------
 Center     Atomic      Atomic             Coordinates (Angstroms)
 Number     Number       Type             X           Y           Z
 ---------------------------------------------------------------------
      1          7           0        1.012107   -1.023604    0.012402
      2          7           0        0.935156    0.320978   -0.018327
      3          6           0        2.254181    0.703935    0.021029
      4          6           0        3.036847   -0.443080    0.070283
      5          7           0        2.241755   -1.517254    0.066703
      6          1           0        2.549886    1.733693    0.014785
      7          1           0        4.109943   -0.546800    0.111495
      8          1           0        0.198055   -1.652352   -0.019788
      9          6           0       -0.007206    1.404754    0.101349
     10          8           0        0.471205    2.607496    0.032910
     11          8           0       -1.245222    1.135940    0.087101
     12          1           0       -2.048808   -2.235496   -0.046280
     13          8           0       -1.212493   -2.741846   -0.101395
     14          1           0       -1.308145   -3.390780   -0.806479
     15          1           0       -2.387800    0.072491    0.047376
     16          8           0       -2.815700   -0.804144    0.118886
     17          1           0       -3.388171   -0.776937    0.893632
 ---------------------------------------------------------------------
                    Distance matrix (angstroms):
                    1          2          3          4          5
     1  N    0.000000
     2  N    1.347132   0.000000
     3  C    2.127726   1.374058   0.000000
     4  C    2.107114   2.238022   1.389473   0.000000
     5  N    1.326150   2.256885   2.221694   1.336425   0.000000
     6  H    3.157128   2.145744   1.071392   2.231267   3.265930
     7  H    3.135882   3.293807   2.239726   1.078885   2.105686
     8  H    1.029097   2.106502   3.127525   3.086938   2.049986
     9  C    2.635115   1.441159   2.368854   3.561139   3.687432
    10  O    3.671224   2.333676   2.608196   3.986217   4.488826
    11  O    3.124859   2.330091   3.526587   4.563956   4.381651
    12  H    3.292617   3.929425   5.211574   5.393535   4.351732
    13  O    2.813210   3.741682   4.889399   4.834323   3.668748
    14  H    3.414331   4.408030   5.490139   5.323213   4.107838
    15  H    3.572395   3.332881   4.684805   5.449140   4.894940
    16  O    3.835570   3.918372   5.290328   5.863875   5.107749
    17  H    4.494424   4.552827   5.898352   6.486155   5.738288
                    6          7          8          9         10
     6  H    0.000000
     7  H    2.764738   0.000000
     8  H    4.122815   4.067228   0.000000
     9  C    2.579615   4.556268   3.066383   0.000000
    10  O    2.254945   4.816240   4.268922   1.296206   0.000000
    11  O    3.842575   5.613377   3.141504   1.266944   2.261534
    12  H    6.075046   6.388020   2.321455   4.176285   5.459974
    13  O    5.848029   5.761239   1.784181   4.322975   5.609665
    14  H    6.466769   6.187615   2.430978   5.051113   6.312684
    15  H    5.209740   6.527503   3.109057   2.728565   3.821043
    16  O    5.936410   6.930426   3.133912   3.573118   4.738187
    17  H    6.506624   7.542308   3.802854   4.101026   5.204807
                   11         12         13         14         15
    11  O    0.000000
    12  H    3.468447   0.000000
    13  O    3.882503   0.979209   0.000000
    14  H    4.614504   1.568810   0.963020   0.000000
    15  H    1.561406   2.334629   3.053518   3.726791   0.000000
    16  O    2.496265   1.632229   2.524577   3.133642   0.978111
    17  H    2.983592   2.191967   3.095887   3.748207   1.561544
                   16         17
    16  O    0.000000
    17  H    0.963688   0.000000
 Stoichiometry    C3H7N3O4(1-,2)
 Framework group  C1[X(C3H7N3O4)]
 Deg. of freedom    45
 Full point group                 C1      NOp   1
 Largest Abelian subgroup         C1      NOp   1
 Largest concise Abelian subgroup C1      NOp   1
                         Standard orientation:                         
 ---------------------------------------------------------------------
 Center     Atomic      Atomic             Coordinates (Angstroms)
 Number     Number       Type             X           Y           Z
 ---------------------------------------------------------------------
      1          7           0        0.393450   -1.092998    0.011141
      2          7           0        0.792548    0.191623   -0.061204
      3          6           0        2.162122    0.089441   -0.018076
      4          6           0        2.493216   -1.256792    0.075035
      5          7           0        1.372133   -1.983991    0.094719
      6          1           0        2.799921    0.949638   -0.052061
      7          1           0        3.461915   -1.728366    0.131891
      8          1           0       -0.589298   -1.397520   -0.011486
      9          6           0        0.289670    1.540070    0.014579
     10          8           0        1.159226    2.496192   -0.084678
     11          8           0       -0.964041    1.721548   -0.005968
     12          1           0       -2.898032   -1.157369   -0.046521
     13          8           0       -2.292159   -1.926049   -0.076507
     14          1           0       -2.608919   -2.522909   -0.762676
     15          1           0       -2.406809    1.124911   -0.026790
     16          8           0       -3.114785    0.456470    0.066246
     17          1           0       -3.641670    0.707579    0.833078
 ---------------------------------------------------------------------
 Rotational constants (GHZ):           1.4574973           1.0085579           0.5986611
 Standard basis: 6-31+G(d,p) (6D, 7F)
 There are   225 symmetry adapted cartesian basis functions of A   symmetry.
 There are   225 symmetry adapted basis functions of A   symmetry.
   225 basis functions,   369 primitive gaussians,   225 cartesian basis functions
    40 alpha electrons       39 beta electrons
       nuclear repulsion energy       548.3987810774 Hartrees.
 NAtoms=   17 NActive=   17 NUniq=   17 SFac= 1.00D+00 NAtFMM=   60 NAOKFM=F Big=F
 Integral buffers will be    131072 words long.
 Raffenetti 2 integral format.
 Two-electron integral symmetry is turned on.
 ------------------------------------------------------------------------------
 Polarizable Continuum Model (PCM)
 =================================
 Model                : PCM.
 Atomic radii         : SMD-Coulomb.
 Polarization charges : Total charges.
 Charge compensation  : None.
 Solution method      : On-the-fly selection.
 Cavity type          : VdW (van der Waals Surface) (Alpha=1.000).
 Cavity algorithm     : GePol (No added spheres)
                        Default sphere list used, NSphG=   17.
                        Lebedev-Laikov grids with approx.  5.0 points / Ang**2.
                        Smoothing algorithm: York/Karplus (Gamma=1.0000).
                        Polarization charges: spherical gaussians, with
                                              point-specific exponents (IZeta= 3).
                        Self-potential: point-specific (ISelfS= 7).
                        Self-field    : sphere-specific E.n sum rule (ISelfD= 2).
 1st derivatives      : Analytical E(r).r(x)/FMM algorithm (CHGder, D1EAlg=3).
                        Cavity 1st derivative terms included.
 Solvent              : Water, Eps=  78.355300 Eps(inf)=   1.777849
 ------------------------------------------------------------------------------
 Spheres list:
 ISph  on   Nord     Re0    Alpha      Xe            Ye            Ze
    1   N      1    1.8900  1.000      0.393450     -1.092998      0.011141
    2   N      2    1.8900  1.000      0.792548      0.191623     -0.061204
    3   C      3    1.8500  1.000      2.162122      0.089441     -0.018076
    4   C      4    1.8500  1.000      2.493216     -1.256792      0.075035
    5   N      5    1.8900  1.000      1.372133     -1.983991      0.094719
    6   H      6    1.2000  1.000      2.799921      0.949638     -0.052061
    7   H      7    1.2000  1.000      3.461915     -1.728366      0.131891
    8   H      8    1.2000  1.000     -0.589298     -1.397520     -0.011486
    9   C      9    1.8500  1.000      0.289670      1.540070      0.014579
   10   O     10    1.5200  1.000      1.159226      2.496192     -0.084678
   11   O     11    1.5200  1.000     -0.964041      1.721548     -0.005968
   12   H     12    1.2000  1.000     -2.898032     -1.157369     -0.046521
   13   O     13    1.5200  1.000     -2.292159     -1.926049     -0.076507
   14   H     14    1.2000  1.000     -2.608919     -2.522909     -0.762676
   15   H     15    1.2000  1.000     -2.406809      1.124911     -0.026790
   16   O     16    1.5200  1.000     -3.114785      0.456470      0.066246
   17   H     17    1.2000  1.000     -3.641670      0.707579      0.833078
 ------------------------------------------------------------------------------
 ------------------------------------------------------------------------------
 Atomic radii for non-electrostatic terms: SMD-CDS.
 ------------------------------------------------------------------------------
 Nuclear repulsion after PCM non-electrostatic terms =      548.4070557208 Hartrees.
 One-electron integrals computed using PRISM.
 NBasis=   225 RedAO= T EigKep=  2.13D-05  NBF=   225
 NBsUse=   225 1.00D-06 EigRej= -1.00D+00 NBFU=   225
 Initial guess from the checkpoint file:  "/scratch/gongke2021/RC/Gau-24078.chk"
 B after Tr=    -0.000000    0.000000    0.000000
         Rot=    0.999917   -0.001250    0.000301   -0.012821 Ang=  -1.48 deg.
 Initial guess <Sx>= 0.0000 <Sy>= 0.0000 <Sz>= 0.5000 <S**2>= 0.7639 S= 0.5069
 ExpMin= 4.38D-02 ExpMax= 5.48D+03 ExpMxC= 8.25D+02 IAcc=2 IRadAn=         4 AccDes= 0.00D+00
 Harris functional with IExCor= 1009 and IRadAn=       4 diagonalized for initial guess.
 HarFok:  IExCor= 1009 AccDes= 0.00D+00 IRadAn=         4 IDoV= 1 UseB2=F ITyADJ=14
 ICtDFT=  3500011 ScaDFX=  1.000000  1.000000  1.000000  1.000000
 FoFCou: FMM=F IPFlag=           0 FMFlag=      100000 FMFlg1=           0
         NFxFlg=           0 DoJE=T BraDBF=F KetDBF=T FulRan=T
         wScrn=  0.000000 ICntrl=       500 IOpCl=  0 I1Cent=   200000004 NGrid=           0
         NMat0=    1 NMatS0=      1 NMatT0=    0 NMatD0=    1 NMtDS0=    0 NMtDT0=    0
 Petite list used in FoFCou.
 Requested convergence on RMS density matrix=1.00D-08 within 128 cycles.
 Requested convergence on MAX density matrix=1.00D-06.
 Requested convergence on             energy=1.00D-06.
 No special actions if energy rises.
 Inv3:  Mode=1 IEnd=     5548800.
 Iteration    1 A*A^-1 deviation from unit magnitude is 2.89D-15 for    255.
 Iteration    1 A*A^-1 deviation from orthogonality  is 2.00D-15 for   1173    746.
 Iteration    1 A^-1*A deviation from unit magnitude is 3.33D-15 for    255.
 Iteration    1 A^-1*A deviation from orthogonality  is 1.89D-15 for   1261     71.
 Error on total polarization charges =  0.06191
 SCF Done:  E(UM062X) =  -583.568569919     A.U. after   16 cycles
            NFock= 16  Conv=0.94D-08     -V/T= 2.0081
 <Sx>= 0.0000 <Sy>= 0.0000 <Sz>= 0.5000 <S**2>= 0.7639 S= 0.5069
 <L.S>=  0.00000000000    
 SMD-CDS (non-electrostatic) energy       (kcal/mol) =       5.19
 (included in total energy above)
 Annihilation of the first spin contaminant:
 S**2 before annihilation     0.7639,   after     0.7501
 D1PCM: PCM CHGder 1st derivatives, ID1Alg=3 FixD1E=F DoIter=F DoCFld=F I1PDM=0.
 Calling FoFJK, ICntrl=      2127 FMM=F ISym2X=0 I1Cent= 0 IOpClX= 1 NMat=1 NMatS=1 NMatT=0.
 ***** Axes restored to original set *****
 -------------------------------------------------------------------
 Center     Atomic                   Forces (Hartrees/Bohr)
 Number     Number              X              Y              Z
 -------------------------------------------------------------------
      1        7          -0.057408050   -0.036853963    0.002859111
      2        7           0.020885410    0.064542111    0.003187429
      3        6           0.048942395   -0.003730167   -0.000943770
      4        6          -0.011359080    0.020315886   -0.000806194
      5        7           0.016769532   -0.013770566    0.001652034
      6        1          -0.000772062    0.001498089    0.000001716
      7        1           0.000459651    0.001931106   -0.000117588
      8        1          -0.003007778    0.005986208   -0.001442027
      9        6          -0.013628711    0.014783184   -0.020493859
     10        8          -0.007661275   -0.044308952    0.008662074
     11        8           0.012621514    0.004097811    0.005374315
     12        1           0.003076798    0.007725195   -0.001132489
     13        8           0.007157714   -0.013305520    0.001050786
     14        1          -0.000057778   -0.001450278   -0.001508135
     15        1           0.011251727   -0.000989239    0.002332748
     16        8          -0.025388758   -0.007506626    0.000429765
     17        1          -0.001881250    0.001035720    0.000894081
 -------------------------------------------------------------------
 Cartesian Forces:  Max     0.064542111 RMS     0.018270320

 GradGradGradGradGradGradGradGradGradGradGradGradGradGradGradGradGradGrad
 Berny optimization.
 Using GEDIIS/GDIIS optimizer.
 FormGI is forming the generalized inverse of G from B-inverse, IUseBI=4.
 Internal  Forces:  Max     0.044398688 RMS     0.011683333
 Search for a local minimum.
 Step number   2 out of a maximum of   88
 All quantities printed in internal units (Hartrees-Bohrs-Radians)
 Mixed Optimization -- RFO/linear search
 Update second derivatives using D2CorX and points    1    2
 DE= -4.16D-02 DEPred=-5.75D-02 R= 7.24D-01
 TightC=F SS=  1.41D+00  RLast= 3.09D-01 DXNew= 5.0454D-01 9.2760D-01
 Trust test= 7.24D-01 RLast= 3.09D-01 DXMaxT set to 5.05D-01
 ITU=  1  0
 Use linear search instead of GDIIS.
 Linear search step of   0.601 exceeds DXMaxT=   0.505 but not scaled.
 Quartic linear search produced a step of  2.00000.
 Iteration  1 RMS(Cart)=  0.16100208 RMS(Int)=  0.02042102
 Iteration  2 RMS(Cart)=  0.03976071 RMS(Int)=  0.00340330
 Iteration  3 RMS(Cart)=  0.00144235 RMS(Int)=  0.00332023
 Iteration  4 RMS(Cart)=  0.00000232 RMS(Int)=  0.00332023
 Iteration  5 RMS(Cart)=  0.00000002 RMS(Int)=  0.00332023
 Variable       Old X    -DE/DX   Delta X   Delta X   Delta X     New X
                                 (Linear)    (Quad)   (Total)
    R1        2.54571   0.03257   0.10444   0.00000   0.10801   2.65372
    R2        2.50606   0.02096   0.04469   0.00000   0.04531   2.55137
    R3        1.94471   0.00047  -0.00022   0.00000   0.00091   1.94562
    R4        2.59659   0.02984   0.15027   0.00000   0.15042   2.74701
    R5        2.72339  -0.01382   0.11364   0.00000   0.11524   2.83864
    R6        2.62572  -0.01453  -0.04637   0.00000  -0.04756   2.57817
    R7        2.02464   0.00123  -0.02907   0.00000  -0.02907   1.99557
    R8        2.52548   0.01779   0.01157   0.00000   0.01063   2.53611
    R9        2.03880   0.00027   0.00091   0.00000   0.00091   2.03971
   R10        3.37161   0.00169   0.00438   0.00000   0.00590   3.37751
   R11        2.44947  -0.04440  -0.07450   0.00000  -0.07450   2.37497
   R12        2.39418  -0.00294   0.00181   0.00000   0.00123   2.39541
   R13        2.95063   0.01173   0.07011   0.00000   0.06865   3.01928
   R14        1.85044   0.00762   0.00853   0.00000   0.00736   1.85780
   R15        3.08447   0.00376   0.00082   0.00000  -0.00121   3.08326
   R16        1.81984   0.00208   0.00586   0.00000   0.00586   1.82571
   R17        1.84836   0.01482   0.04268   0.00000   0.04074   1.88910
   R18        1.82111   0.00187   0.00546   0.00000   0.00546   1.82657
    A1        2.01024  -0.02123  -0.02375   0.00000  -0.02428   1.98596
    A2        2.16991   0.01868   0.08266   0.00000   0.08769   2.25760
    A3        2.10287   0.00253  -0.05908   0.00000  -0.06359   2.03928
    A4        1.79537   0.00883  -0.03691   0.00000  -0.03617   1.75920
    A5        2.47519  -0.03948  -0.28291   0.00000  -0.27814   2.19705
    A6        1.99954   0.03035   0.31741   0.00000   0.31368   2.31322
    A7        1.88774  -0.00596   0.00534   0.00000   0.00527   1.89301
    A8        2.13253   0.00182   0.03966   0.00000   0.03964   2.17217
    A9        2.26291   0.00414  -0.04500   0.00000  -0.04499   2.21792
   A10        1.90530   0.01260   0.03178   0.00000   0.03076   1.93606
   A11        2.26656  -0.00831  -0.02330   0.00000  -0.02284   2.24373
   A12        2.11131  -0.00430  -0.00850   0.00000  -0.00801   2.10330
   A13        1.82612   0.00575   0.02353   0.00000   0.02433   1.85045
[...]
 8633438,-0.7335111386,0.8449515786\H,0.0131824205,-1.3778049092,-0.161
 7278869\C,-0.056219682,1.380399448,-0.471175506\O,0.3439533468,2.51558
 8923,-0.821091608\O,-1.2449772946,0.9644203628,-0.3898416427\H,-1.9192
 497291,-2.1971500143,-0.3066512205\O,-1.2865372044,-2.6872195594,-0.87
 06158519\H,-1.5084677547,-2.447345299,-1.7794411785\H,-2.0845107068,-0
 .2742110464,0.5348603894\O,-2.6544089347,-0.9992500366,0.8752703429\H,
 -2.3053805342,-1.2144731521,1.7500957747\\Version=ES64L-G16RevA.03\Sta
 te=2-A\HF=-583.608954\S2=0.765095\S2-1=0.\S2A=0.750069\RMSD=2.507e-09\
 RMSF=2.555e-05\ZeroPoint=0.1204819\Thermal=0.1331582\Dipole=1.4831394,
 -1.6662274,0.4873645\DipoleDeriv=-0.9348709,-0.7258327,0.2477001,-0.15
 49927,0.0646677,-0.1976232,0.2226536,-0.0231248,-0.1585367,-1.2986639,
 1.272979,-0.6898731,0.9204324,-0.9442911,0.3561014,-0.477638,0.3549398
 ,-0.2742839,0.1485175,-0.2662969,0.3094354,0.0811072,-0.449238,0.03388
 12,0.0187082,-0.0066039,-0.2063863,0.1286876,0.323901,-0.0423217,-0.34
 43628,0.7921709,-0.2873221,0.1408188,-0.2795631,0.0035875,0.0840677,-0
 .0446076,-0.0762321,0.1028925,-1.1680845,0.2912908,-0.0144251,0.116710
 7,-0.4176503,0.1463202,-0.0057484,-0.0297919,-0.0250863,0.1679626,0.04
 46788,-0.0203002,0.0583057,0.2700994,0.0271968,0.013639,-0.0375198,0.0
 320406,0.1640575,0.022342,-0.0463304,0.0289854,0.1941092,0.7185463,0.3
 425616,0.0662838,0.2686017,0.5198312,0.1154762,-0.0157167,0.0936009,0.
 3750383,3.7641382,-0.2875682,0.2922858,-0.3397454,3.5326455,-1.0443255
 ,0.2504234,-0.9182577,0.9086081,-1.109874,-0.4040562,0.1183841,-0.0229
 572,-2.4905211,0.6367274,-0.0109554,0.550393,-0.9160366,-2.6888187,-0.
 2271898,-0.0288937,-0.5724767,-1.1889332,0.1675055,0.153239,0.218302,-
 0.810633,0.5101381,-0.0751232,-0.1760718,-0.0708159,0.6003046,0.211797
 5,-0.179151,0.227718,0.6497484,-0.9983853,-0.145252,0.1124119,-0.17774
 21,-1.0503783,-0.2002285,0.0501296,-0.2296827,-0.9373118,0.4003134,0.0
 518425,-0.0507743,0.0531548,0.40754,0.0533081,-0.0146949,0.0387735,0.3
 680862,0.7076728,0.2185589,-0.1830899,0.3257737,0.7363454,-0.1851146,-
 0.2851228,-0.232145,0.5351833,-0.9815334,-0.0269145,0.2495469,-0.04433
 66,-1.1179285,-0.0040743,0.2956385,-0.0075892,-0.9534607,0.3765476,-0.
 0148926,-0.0814795,-0.0314871,0.4238493,-0.0144207,-0.0672767,0.009237
 2,0.3698388\Polar=137.2551771,-3.1819484,137.6813834,7.5376522,-21.118
 5164,88.3431167\Quadrupole=4.0536273,-16.1612983,12.107671,5.0814997,-
 0.4431691,7.0048157\PG=C01 [X(C3H7N3O4)]\NImag=0\\0.61135994,0.1511059
 2,0.53756999,0.21628907,0.01123766,0.27399847,-0.11126749,-0.07267978,
 -0.00708046,0.74177968,-0.03498736,-0.18181134,0.05264070,-0.03577275,
 0.56989657,-0.00493380,0.07225238,-0.06897860,0.11022931,-0.18958233,0
 .15074258,-0.05174271,-0.03790543,0.01935758,-0.29309655,-0.03943699,-
 0.03806584,0.59521090,-0.02498374,-0.02924623,-0.00122639,-0.02737515,
 -0.11322251,0.02459421,0.10317890,0.78727253,0.00145006,0.00759816,-0.
 00020081,-0.04987435,0.02241677,-0.04858712,0.05609974,-0.24784547,0.1
 9355331,-0.08972621,-0.01186310,-0.01653908,-0.05791284,0.01977818,-0.
 01968549,-0.14925731,0.11970821,-0.06148376,0.83935780,-0.01969298,0.0
 0012238,0.01053423,0.03988096,0.00502124,0.00946196,0.08919599,-0.2671
 4110,0.09860855,-0.08631528,0.53063053,-0.00519644,0.00367724,-0.00119
 452,-0.03128023,0.00760798,0.00562571,-0.05183954,0.10572970,-0.111234
 63,0.15912263,-0.17512220,0.22458349,-0.20653031,0.08767824,-0.0806248
 6,-0.03009486,0.03727080,-0.01642736,0.02884794,-0.07264172,0.02933918
 ,-0.21710111,-0.10120798,0.01284517,0.46397498,0.02464228,-0.12796668,
 0.02199964,0.04171466,-0.05525741,0.02210946,-0.01848432,-0.09988480,0
 .03973276,-0.09169606,-0.17924496,0.02891015,0.05847837,0.42929401,-0.
 02092380,0.01348063,-0.05381956,-0.01981422,0.03555736,-0.01844929,0.0
 0284954,0.03198040,0.01744464,0.00773860,0.02707068,-0.06075463,0.0436
 3326,-0.11151919,0.11675641,-0.00485997,-0.00010307,-0.00334615,-0.008
 74576,-0.02582381,0.00994939,-0.11327458,-0.11934281,0.02656809,0.0126
 2783,0.00913497,-0.00107064,0.00003587,0.00441120,-0.00292263,0.113473
 68,0.00327675,-0.00005981,0.00108724,0.00169464,0.00298181,-0.00177722
 ,-0.12832668,-0.29386520,0.08127348,-0.01139092,-0.00727347,0.00069559
 ,-0.00017957,0.00064822,0.00250842,0.13350947,0.29916616,-0.00096931,0
 .00029892,0.00243505,-0.00144682,-0.00802751,0.00003685,0.03075300,0.0
 8309229,-0.04494993,0.00696000,0.00485808,-0.00022867,-0.00281726,0.00
 409963,0.00399479,-0.03137784,-0.08345303,0.04103051,-0.00092936,-0.00
 392273,-0.00181053,0.00046039,-0.00068486,-0.00051666,0.00006329,-0.00
 185752,0.00044724,-0.33090058,0.06196908,-0.07673894,-0.01599750,0.005
 31180,-0.00322100,-0.00030630,0.00037379,0.00022801,0.34778658,-0.0056
 3258,-0.00213014,0.00150150,0.00110136,-0.00546549,0.00429529,0.022027
 47,0.00501501,0.00314087,0.06596885,-0.07396607,0.02637244,-0.02092909
 ,0.01075868,-0.00879982,-0.00057037,-0.00020058,-0.00102348,-0.0619767
 0,0.06406068,0.00025930,0.00428271,0.00680763,-0.00112217,0.00333189,0
 .00518623,-0.00840989,-0.00144036,0.00057050,-0.07845059,0.02497548,-0
 .05912268,0.00595336,-0.00340347,-0.00307767,0.00062208,-0.00084012,-0
 .00209988,0.08145975,-0.02591952,0.05074264,-0.14781199,-0.10749563,-0
 .12411166,-0.00652829,-0.00281539,0.00399572,0.00483544,-0.00130381,0.
 00095131,-0.00242726,0.00765497,-0.00587058,-0.02889759,-0.01319954,-0
 .01294597,0.00000944,-0.00040856,-0.00052020,-0.00050060,-0.00063873,0
 .00060199,0.18192146,-0.12374048,-0.16814419,-0.09974830,-0.01946028,-
 0.01772800,-0.01357369,0.00385427,-0.00274256,0.00084153,0.00498515,-0
 .00218776,0.00172497,0.01463443,0.01908016,0.01113709,-0.00055599,0.00
 007398,-0.00023922,0.00093450,0.00071656,-0.00087946,0.11844660,0.1709
 0224,-0.16857046,-0.12072678,-0.15389884,0.02465461,0.01638670,0.01232
 637,-0.00274269,0.00584427,-0.00360171,0.00168844,-0.00143196,0.000920
 61,0.00525123,-0.00057116,-0.00327860,0.00132928,0.00006639,0.00045024
 ,0.00037619,0.00041671,0.00053433,0.13616126,0.09800487,0.14884022,0.0
 0506977,0.00893394,-0.00082948,-0.14580875,0.04324395,-0.02868568,-0.0
 2724361,0.01423530,-0.00069475,0.00036555,0.00284694,-0.00034509,0.007
 78330,-0.02073611,0.00852363,0.00083924,-0.00080507,-0.00004358,0.0007
 3449,-0.00029097,-0.00046568,0.00544398,-0.00091248,0.00107552,0.69839
 267,0.02548449,-0.02752593,0.00465119,0.02497295,-0.13074022,0.0381475
 9,0.01498534,0.01691757,-0.00735379,-0.01212358,-0.00678780,-0.0001521
 5,-0.00744358,0.01142276,-0.00345906,-0.00156010,-0.00157261,0.0003346
 3,-0.00060502,0.00175891,-0.00031495,-0.00362554,-0.00467105,-0.001637
 56,0.17445575,0.67303325,-0.01287793,0.01010298,-0.00808445,-0.0060284
 0,0.02679358,-0.06085023,-0.01094820,-0.00160414,-0.00656177,0.0019386
 7,0.00128589,0.00158155,0.00380155,-0.00380218,0.00024378,0.00064054,0
 .00023710,-0.00049221,-0.00009594,0.00024789,0.00121305,0.00041442,0.0
 0067330,0.00145530,-0.03077519,-0.14731027,0.26184047,-0.00513353,-0.0
 0074373,0.00198971,0.01398538,0.02609168,-0.01248702,0.00069647,-0.000
 00889,0.00097531,0.00238887,0.00260885,-0.00019556,-0.00044293,0.00121
 423,-0.00113105,0.00055407,0.00215882,-0.00075140,-0.00003399,0.000135
 97,-0.00007396,-0.00007065,0.00074902,-0.00048316,-0.12820948,-0.10833
 400,0.03476785,0.15920283,0.00294916,0.00206533,0.00190859,0.02049049,
 -0.08717974,0.02767465,-0.00559430,-0.00049795,0.00141039,0.00161750,0
 .00317285,-0.00064433,0.00380922,-0.01050279,0.00357483,0.00072204,-0.
 00021375,0.00015200,0.00043458,-0.00023084,0.00000934,0.00259319,0.001
 58336,0.00108366,-0.10707329,-0.40352396,0.10345099,0.15148421,0.53500
 661,-0.00003172,0.00155353,0.00356217,-0.00762855,0.03057884,0.0085169
 4,0.00308075,-0.00045768,-0.00100660,-0.00022540,-0.00068549,0.0000588
 4,-0.00127530,0.00341419,-0.00043002,-0.00024787,0.00033596,-0.0000254
 1,-0.00011748,0.00005288,-0.00007482,-0.00080976,0.00018487,-0.0009357
 6,0.03140760,0.10260418,-0.10919761,-0.04382711,-0.15595644,0.07830473
 ,0.00756201,-0.00795726,-0.00042368,-0.10368331,0.01392413,-0.00291537
 ,0.00564389,0.01105331,-0.00374045,-0.00730949,-0.00585607,0.00034124,
 -0.00308454,0.00889341,-0.00198845,-0.00027145,0.00008483,-0.00003013,
 -0.00031117,0.00084426,-0.00043972,-0.00286684,-0.00117725,-0.00041186
 ,-0.40886438,-0.10423674,0.01878015,-0.04486382,-0.07301955,0.01979558
 ,0.55769005,0.00686902,-0.00040640,-0.00211822,0.02326166,0.01406157,0
 .00694442,-0.00255385,-0.00179931,0.00015079,0.00163458,-0.00234879,0.
 00112243,-0.00017478,0.00331758,-0.00146907,0.00026726,0.00030108,-0.0
 0007807,0.00013571,-0.00021397,0.00011531,-0.00161672,0.00210532,0.001
 02236,-0.10548171,-0.12727960,0.01090482,-0.07743281,-0.04153310,0.018
 40924,0.15812899,0.16327971,-0.00186462,-0.00068150,-0.00087192,-0.008
 88905,0.00217074,0.01545451,-0.00006695,0.00157910,0.00456520,-0.00059
 886,0.00056017,-0.00022516,-0.00003247,-0.00060955,0.00136849,-0.00004
 509,-0.00015388,-0.00013114,0.00008172,-0.00026120,-0.00068807,0.00027
 549,-0.00037055,-0.00108537,0.01617265,0.01299616,-0.08088560,0.023099
 42,0.01980955,0.02048024,-0.02978953,-0.04079179,0.04621986,0.00091362
 ,0.00026474,0.00017681,-0.00003319,0.00004042,0.00021760,0.00019929,0.
 00023652,-0.00002237,0.00015730,0.00000556,0.00002282,-0.00009526,0.00
 045159,-0.00003108,0.00003973,-0.00000733,0.00000926,0.00004413,0.0000
 3083,-0.00001528,-0.00596915,-0.00326599,-0.00092185,0.00089421,-0.000
 51292,0.00020685,-0.00015208,0.00019666,-0.00009116,-0.00097733,-0.000
 39094,0.00039614,0.21078873,-0.00039242,-0.00027861,-0.00011951,0.0002
 2874,-0.00008506,0.00003045,0.00001920,-0.00000398,0.00000189,0.000078
 82,0.00003905,0.00004267,0.00012231,0.00002601,-0.00006353,0.00000804,
 -0.00000115,0.00000683,0.00001348,0.00000975,0.00000235,-0.00180433,0.
 00023897,0.00047903,-0.00101185,-0.00028685,-0.00002884,0.00035516,0.0
 0043344,-0.00008464,0.00120991,0.00117224,-0.00055558,-0.14609151,0.12
 555199,-0.00088195,-0.00042198,-0.00043300,0.00015750,-0.00003472,-0.0
 0005951,-0.00004698,-0.00007714,0.00000932,-0.00000991,0.00002147,-0.0
 0000756,0.00006371,-0.00015111,-0.00002605,-0.00000849,0.00000255,0.00
 000743,-0.00000996,-0.00000553,0.00001227,0.00076082,0.00097814,0.0013
 6535,-0.00084396,0.00002380,-0.00010874,0.00025177,0.00018903,-0.00001
 197,0.00113866,0.00083597,-0.00073928,-0.15568128,0.11334845,0.1938852
 6,-0.00462268,-0.00437388,-0.00291244,0.00037258,0.00003776,-0.0009515
 2,-0.00067779,-0.00057015,-0.00005505,-0.00052385,-0.00027154,0.000168
 55,0.00138128,-0.00091078,0.00026397,-0.00011626,0.00003319,-0.0000043
 7,-0.00012864,-0.00006901,0.00005313,0.00249862,0.00347675,0.00267277,
 -0.00193174,0.00154176,-0.00033639,0.00017629,-0.00088950,0.00026591,0
 .00140800,0.00021507,-0.00028963,-0.21037995,0.15850759,0.13177056,0.2
 6935117,-0.00465583,-0.00214549,-0.00250619,0.00028055,0.00021645,-0.0
 0057629,-0.00062781,-0.00047321,-0.00004871,-0.00055267,-0.00013784,0.
 00001309,0.00032321,-0.00125890,-0.00016052,-0.00009298,0.00002354,-0.
 00001752,-0.00013313,-0.00008328,0.00006385,0.00369604,0.00066850,0.00
 227936,-0.00056832,0.00161790,-0.00025511,-0.00017328,-0.00112902,0.00
 028044,0.00014803,-0.00085810,0.00012358,0.15780187,-0.12845738,-0.098
 55668,-0.21126751,0.18575467,-0.00277041,-0.00281368,0.00013782,-0.000
 53802,-0.00028951,-0.00086656,-0.00029422,-0.00047094,0.00006685,-0.00
 031795,-0.00006636,0.00002001,0.00050836,-0.00055360,0.00009376,-0.000
 09891,0.00001346,-0.00002130,-0.00008006,-0.00004432,0.00001596,0.0031
 2385,0.00305049,-0.00158034,-0.00047473,0.00093252,-0.00020927,-0.0000
 9843,-0.00072157,0.00020605,-0.00010292,-0.00054867,0.00039718,0.17183
 030,-0.12943241,-0.17430448,-0.05215824,0.00694868,0.65726335,-0.00025
 058,-0.00053249,0.00017028,-0.00014406,-0.00007940,-0.00014204,-0.0000
 1765,-0.00007115,0.00002249,-0.00000811,-0.00000576,-0.00000148,0.0000
 9591,0.00000556,0.00004520,-0.00001240,-0.00000077,-0.00000266,-0.0000
 0484,-0.00000183,-0.00000221,0.00009617,0.00079060,-0.00093006,-0.0000
 9936,0.00001695,-0.00003834,0.00001452,-0.00001562,0.00001874,0.000054
 70,0.00005589,-0.00000279,0.00609755,-0.00761527,0.02806631,-0.0536827
 6,0.04997323,-0.12686139,0.04856437,-0.00038651,-0.00051769,0.00003893
 ,-0.00007479,-0.00006541,-0.00008268,-0.00002974,-0.00005653,0.0000188
 4,-0.00001698,0.00000484,0.00000823,0.00009025,-0.00006488,0.00001017,
 -0.00001201,-0.00000051,-0.00000377,-0.00000570,-0.00000209,0.00000012
 ,0.00043910,0.00070007,-0.00065761,-0.00023169,0.00000678,-0.00002502,
 0.00004766,0.00000131,0.00000276,0.00009594,0.00010445,0.00010818,-0.0
 0489876,0.00518629,-0.02144978,0.04771555,-0.04880965,0.13466068,-0.04
 372385,0.04457771,0.00045009,0.00034904,0.00039816,-0.00003284,-0.0000
 3501,0.00000581,0.00006173,0.00003885,0.00000307,0.00003435,0.00001925
 ,0.00000118,-0.00005894,0.00008838,-0.00002941,0.00000932,-0.00000305,
 -0.00000262,0.00001085,0.00000468,-0.00000345,-0.00133088,-0.00103612,
 -0.00106968,0.00002122,-0.00015572,0.00003741,0.00002438,0.00010636,-0
 .00003650,-0.00002431,0.00007845,0.00000730,-0.01076650,0.01051984,-0.
 02238440,-0.08784438,0.10241420,-0.47141376,0.09917462,-0.11202893,0.4
 9424389,-0.00007596,-0.00008160,-0.00052389,0.00209684,-0.00130688,0.0
 0045955,-0.00006704,-0.00044629,0.00013674,0.00058924,0.00037468,0.000
 00232,0.00013929,-0.00035815,-0.00038095,0.00002994,-0.00002782,0.0000
 1696,0.00006745,0.00000979,0.00005166,-0.00069076,0.00129723,0.0012341
 0,-0.01574333,-0.00395053,-0.00060692,0.00451288,0.00498086,-0.0006847
 7,0.01107754,0.00749068,-0.00552755,0.00137638,-0.00001120,-0.00110904
 ,-0.00086707,0.00016033,0.00066974,-0.00005912,0.00002334,0.00005425,0
 .16023025,-0.00058566,0.00055928,-0.00000412,0.00370785,-0.00128468,0.
 00016457,-0.00055722,-0.00063917,0.00019501,0.00040538,0.00029191,-0.0
 0001556,0.00049255,-0.00090410,0.00030775,0.00001042,-0.00002389,0.000
 00197,0.00002715,-0.00005869,0.00002786,0.00106842,0.00019984,-0.00035
 287,-0.01759530,-0.00291885,-0.00306207,0.00530117,0.00593692,-0.00053
 908,0.01683025,0.00162733,-0.00290952,0.00128942,-0.00772198,-0.004354
 89,-0.00126817,0.00188698,0.00199478,-0.00008573,0.00014365,-0.0001208
 3,0.17496868,0.25189225,0.00048322,-0.00052305,-0.00000245,-0.00246326
 ,0.00085105,-0.00019527,0.00041265,0.00041181,-0.00012294,-0.00032540,
 -0.00012559,-0.00004079,-0.00029566,0.00043489,-0.00012967,-0.00001119
 ,0.00001721,-0.00000132,-0.00002872,0.00003565,-0.00001917,-0.00007084
 ,-0.00038274,-0.00005573,0.01188120,0.00025016,0.00084483,-0.00422345,
 -0.00395694,0.00100168,-0.01168646,-0.00293872,-0.00076722,-0.00128186
 ,-0.00159401,0.00125011,0.00077555,-0.00002778,-0.00083040,0.00009134,
 -0.00012085,-0.00010773,-0.06595679,-0.11042449,0.09517360,-0.00202110
 ,-0.00038667,0.00039390,-0.00122107,0.00045245,-0.00000941,-0.00018930
 ,0.00015654,-0.00010708,-0.00031912,-0.00033792,0.00003923,0.00002682,
 0.00024319,0.00037398,-0.00002614,0.00001544,-0.00000197,-0.00004565,-
 0.00001432,-0.00002430,0.00099420,-0.00007826,-0.00050284,0.00767775,0
 .00114928,0.00103860,-0.00234972,-0.00248918,0.00034317,-0.00960708,-0
 .00927068,0.00669697,-0.00350356,-0.00278365,-0.00397459,-0.00166721,0
 .00495900,0.00741693,-0.00068137,0.00104871,0.00024854,-0.17112946,-0.
 17812349,0.04935203,0.27491800,0.00066911,-0.00003259,0.00021622,-0.00
 189065,0.00063757,-0.00008910,0.00021490,0.00036825,-0.00014375,-0.000
 22246,-0.00022670,0.00003951,-0.00029565,0.00053077,-0.00015669,-0.000
 00203,0.00001593,-0.00000290,-0.00001604,0.00002658,-0.00001205,-0.000
 93252,-0.00078646,-0.00021473,0.01080518,0.00072049,0.00225352,-0.0032
 8365,-0.00323864,0.00030034,-0.01771458,-0.01087585,0.00879499,-0.0033
 9991,0.00233450,0.01029225,0.00683317,-0.00560171,-0.01218944,0.001385
 97,-0.00129504,-0.00033021,-0.19760862,-0.24358246,0.08843209,0.172333
 53,0.30850272,0.00029197,0.00031123,0.00006427,0.00118733,-0.00042959,
 0.00011089,-0.00012410,-0.00014931,0.00006958,0.00020248,0.00010799,0.
 00000738,0.00005569,-0.00016477,0.00000043,0.00001493,-0.00001306,0.00
 000042,0.00002266,-0.00000684,0.00000842,-0.00089020,-0.00030748,-0.00
 016418,-0.00624476,0.00014538,-0.00082590,0.00226618,0.00210441,-0.000
 42287,0.01172109,0.00878729,-0.00363305,-0.00422324,0.00828551,0.00441
 965,0.00872327,-0.01009181,-0.00979108,0.00049940,-0.00059981,0.000316
 05,0.08182781,0.11917187,-0.08208227,0.09380469,-0.21819791,0.52588319
 ,0.00006655,0.00006254,-0.00017513,-0.00015873,0.00006807,-0.00003139,
 0.00006932,0.00003244,-0.00001233,-0.00000070,0.00001552,-0.00000347,-
 0.00004128,0.00001867,-0.00006902,0.00000305,-0.00000021,-0.00000169,0
 .00000227,0.00000506,0.00000253,-0.00003617,0.00002217,0.00011951,0.00
 069968,-0.00021449,0.00011867,-0.00027510,-0.00019649,0.00002736,-0.00
 159678,-0.00113735,0.00038416,0.00059959,-0.00083300,0.00035684,-0.000
 58998,0.00072925,0.00024610,0.00003701,-0.00008051,-0.00003148,0.00851
 291,-0.00588572,0.02334763,-0.09085598,0.03312423,-0.18913521,0.083564
 34,0.00006083,-0.00005188,-0.00009318,-0.00008048,0.00002467,0.0000063
 2,0.00004028,-0.00000082,0.00000269,0.00000435,0.00003168,-0.00000976,
 -0.00002701,0.00000634,0.00000053,-0.00000023,0.00000025,0.00000114,0.
 00000162,0.00000497,0.00000102,-0.00005754,-0.00000898,0.00000932,0.00
 018574,-0.00017078,0.00013755,-0.00017040,-0.00015003,0.00000611,-0.00
 125162,-0.00065416,0.00019110,-0.00175026,0.00184275,-0.00063982,0.001
 25970,-0.00121344,-0.00047013,-0.00009635,0.00008670,0.00009080,0.0144
 8552,-0.00540434,0.02966132,0.01312602,-0.04749738,0.09104689,-0.02573
 017,0.05315446,-0.00020328,0.00002249,0.00008057,-0.00003037,0.0000630
 5,-0.00001931,-0.00007657,0.00000082,-0.00001696,-0.00004873,-0.000072
 15,0.00000986,0.00008034,-0.00001407,0.00009260,-0.00000484,0.00000294
 ,-0.00000280,-0.00000712,-0.00000721,-0.00000527,0.00026526,-0.0000577
 1,-0.00022221,0.00032108,0.00029788,-0.00000062,-0.00010350,-0.0001945
 2,0.00001091,-0.00022386,-0.00042656,0.00053404,0.00017485,-0.00083850
 ,-0.00287441,-0.00014168,0.00011744,0.00081621,-0.00010740,0.00012053,
 0.00003470,-0.00966320,-0.00008038,-0.01391528,-0.15508786,0.12100786,
 -0.43396091,0.16485690,-0.11994191,0.44943888\\-0.00008807,0.00001406,
 -0.00001505,0.00004848,0.00005671,-0.00001163,-0.00002963,-0.00002333,
 0.00001746,-0.00002121,-0.00001180,0.00000200,0.00008136,-0.00002139,0
 .00001612,-0.00000879,0.00000477,0.00000779,-0.00000058,-0.00000380,0.
 00000396,0.00001642,0.00001227,-0.00001158,0.00000982,-0.00006374,0.00
 001938,0.00000347,0.00001921,0.00000353,-0.00000981,0.00001641,0.00001
 498,-0.00000456,-0.00003232,-0.00001504,-0.00001360,0.00000928,0.00001
 449,0.00000751,0.00002263,-0.00000963,0.00000739,-0.00000901,-0.000011
 51,0.00000743,0.00001784,-0.00001078,-0.00000561,-0.00000780,-0.000014
 51\\\@


          EVOLUTION
 IN THE BEGINNING GOD MADE MAN.
 HE WORKED THE DIRT WITH HIS HANDS.
 THEN GOD DECIDED TO GIVE MAN SCIENCE,
 MAN SHOULD BE USEFUL (LIKE AN APPLIANCE.)
 BUT SOON MAN'S KNOWLEDGE GREW TOO GREAT,
 TO THE HEADING SCIENCE HE COULDN'T RELATE
 SO GOD SAID "LETS HAVE DIFFERENT FIELDS,
 WE'LL DIVIDE THEM UP, SEE WHAT IT YIELDS."
 ENTER PHYSICS, CHEMISTRY, BIO
 THEY SPRANG UP AROUND THE NILE.
 BUT CHEMISTRY SURPASSED THE REST
 FAR AND AWAY IT WAS THE BEST.
 EXPERIMENT WAS GOD'S DECREE
 EXPERIMENT DID CHEMISTS WITH LOTS OF GLEE
 BUT SOON THEIR TESTS BEGAN TO BOG,
 THEY FOUND THEMSELVES DEEP IN A FOG.
 "GIVE US SOME HELP" THEY CRIED TO GOD.
 GOD LOOKED AROUND, THEN GAVE THE NOD.
 ENTER EINSTEIN, HEISENBERG, BOHR,
 REACTION PATHS WERE CLEAR ONCE MORE.
 WITH THEORISTS GOD SEND DIRECTION
 AND THEN HE STOPPED, HE'D MADE PERFECTION.
          -- THOMAS A. HOLME, 1981
 Job cpu time:       0 days  0 hours 53 minutes 29.2 seconds.
 Elapsed time:       0 days  0 hours  2 minutes 14.4 seconds.
 File lengths (MBytes):  RWF=    223 Int=      0 D2E=      0 Chk=     12 Scr=      1
 Normal termination of Gaussian 16 at Tue Jul 11 22:49:20 2023.
