 Entering Gaussian System, Link 0=/opt/soft/g16b/g16/g16
 Initial command:
 /opt/soft/g16b/g16/l1.exe "/scratch/gongke2021/co2-/Gau-15696.inp" -scrdir="/scratch/gongke2021/co2-/"
 Entering Link 1 = /opt/soft/g16b/g16/l1.exe PID=     15697.
  
 Copyright (c) 1988,1990,1992,1993,1995,1998,2003,2009,2016,
            Gaussian, Inc.  All Rights Reserved.
  
 This is part of the Gaussian(R) 16 program.  It is based on
 the Gaussian(R) 09 system (copyright 2009, Gaussian, Inc.),
 the Gaussian(R) 03 system (copyright 2003, Gaussian, Inc.),
 the Gaussian(R) 98 system (copyright 1998, Gaussian, Inc.),
 the Gaussian(R) 94 system (copyright 1995, Gaussian, Inc.),
 the Gaussian 92(TM) system (copyright 1992, Gaussian, Inc.),
 the Gaussian 90(TM) system (copyright 1990, Gaussian, Inc.),
 the Gaussian 88(TM) system (copyright 1988, Gaussian, Inc.),
 the Gaussian 86(TM) system (copyright 1986, Carnegie Mellon
 University), and the Gaussian 82(TM) system (copyright 1983,
 Carnegie Mellon University). Gaussian is a federally registered
 trademark of Gaussian, Inc.
  
 This software contains proprietary and confidential information,
 including trade secrets, belonging to Gaussian, Inc.
  
 This software is provided under written license and may be
 used, copied, transmitted, or stored only in accord with that
 written license.
  
 The following legend is applicable only to US Government
 contracts under FAR:
  
                    RESTRICTED RIGHTS LEGEND
  
 Use, reproduction and disclosure by the US Government is
 subject to restrictions as set forth in subparagraphs (a)
 and (c) of the Commercial Computer Software - Restricted
 Rights clause in FAR 52.227-19.
  
 Gaussian, Inc.
 340 Quinnipiac St., Bldg. 40, Wallingford CT 06492
  
  
 ---------------------------------------------------------------
 Warning -- This program may not be used in any manner that
 competes with the business of Gaussian, Inc. or will provide
 assistance to any competitor of Gaussian, Inc.  The licensee
 of this program is prohibited from giving any competitor of
 Gaussian, Inc. access to this program.  By using this program,
 the user acknowledges that Gaussian, Inc. is engaged in the
 business of creating and licensing software in the field of
 computational chemistry and represents and warrants to the
 licensee that it is not a competitor of Gaussian, Inc. and that
 it will not use this program in any manner prohibited above.
 ---------------------------------------------------------------
  

 Cite this work as:
 Gaussian 16, Revision A.03,
 M. J. Frisch, G. W. Trucks, H. B. Schlegel, G. E. Scuseria, 
 M. A. Robb, J. R. Cheeseman, G. Scalmani, V. Barone, 
 G. A. Petersson, H. Nakatsuji, X. Li, M. Caricato, A. V. Marenich, 
 J. Bloino, B. G. Janesko, R. Gomperts, B. Mennucci, H. P. Hratchian, 
 J. V. Ortiz, A. F. Izmaylov, J. L. Sonnenberg, D. Williams-Young, 
 F. Ding, F. Lipparini, F. Egidi, J. Goings, B. Peng, A. Petrone, 
 T. Henderson, D. Ranasinghe, V. G. Zakrzewski, J. Gao, N. Rega, 
 G. Zheng, W. Liang, M. Hada, M. Ehara, K. Toyota, R. Fukuda, 
 J. Hasegawa, M. Ishida, T. Nakajima, Y. Honda, O. Kitao, H. Nakai, 
 T. Vreven, K. Throssell, J. A. Montgomery, Jr., J. E. Peralta, 
 F. Ogliaro, M. J. Bearpark, J. J. Heyd, E. N. Brothers, K. N. Kudin, 
 V. N. Staroverov, T. A. Keith, R. Kobayashi, J. Normand, 
 K. Raghavachari, A. P. Rendell, J. C. Burant, S. S. Iyengar, 
 J. Tomasi, M. Cossi, J. M. Millam, M. Klene, C. Adamo, R. Cammi, 
 J. W. Ochterski, R. L. Martin, K. Morokuma, O. Farkas, 
 J. B. Foresman, and D. J. Fox, Gaussian, Inc., Wallingford CT, 2016.
 
 ******************************************
 Gaussian 16:  ES64L-G16RevA.03 25-Dec-2016
                 1-Jul-2023 
 ******************************************
 %chk=CO2-.chk
 %mem=10GB
 %nprocshared=20
 Will use up to   20 processors via shared memory.
 -----------------------------------------------------
 # opt freq 6-31+g(d,p) m062x scrf=(SMD,solvent=water)
 -----------------------------------------------------
 1/18=20,19=15,26=3,38=1/1,3;
 2/9=110,12=2,17=6,18=5,40=1/2;
 3/5=1,6=6,7=111,11=2,25=1,30=1,70=32201,71=1,72=1,74=-55/1,2,3;
 4//1;
 5/5=2,38=5,53=1/2;
 6/7=2,8=2,9=2,10=2,28=1/1;
 7//1,2,3,16;
 1/18=20,19=15,26=3/3(2);
 2/9=110/2;
 99//99;
 2/9=110/2;
 3/5=1,6=6,7=111,11=2,25=1,30=1,70=32205,71=1,72=1,74=-55/1,2,3;
 4/5=5,16=3,69=1/1;
 5/5=2,38=5,53=1/2;
 7//1,2,3,16;
 1/18=20,19=15,26=3/3(-5);
 2/9=110/2;
 6/7=2,8=2,9=2,10=2,19=2,28=1/1;
 99/9=1/99;
 ----------
 "Sketch 2"
 ----------
 Symbolic Z-matrix:
 Charge = -1 Multiplicity = 2
 C                     0.        0.3347    0. 
 O                     1.1459   -0.12562   0. 
 O                    -1.1459   -0.1254    0. 
 

 GradGradGradGradGradGradGradGradGradGradGradGradGradGradGradGradGradGrad
 Berny optimization.
 Initialization pass.
                           ----------------------------
                           !    Initial Parameters    !
                           ! (Angstroms and Degrees)  !
 --------------------------                            --------------------------
 ! Name  Definition              Value          Derivative Info.                !
 --------------------------------------------------------------------------------
 ! R1    R(1,2)                  1.2349         estimate D2E/DX2                !
 ! R2    R(1,3)                  1.2348         estimate D2E/DX2                !
 ! A1    A(2,1,3)              136.2374         estimate D2E/DX2                !
 --------------------------------------------------------------------------------
 Trust Radius=3.00D-01 FncErr=1.00D-07 GrdErr=1.00D-06 EigMax=2.50D+02 EigMin=1.00D-04
 Number of steps in this run=     20 maximum allowed number of steps=    100.
 GradGradGradGradGradGradGradGradGradGradGradGradGradGradGradGradGradGrad

                          Input orientation:                          
 ---------------------------------------------------------------------
 Center     Atomic      Atomic             Coordinates (Angstroms)
 Number     Number       Type             X           Y           Z
 ---------------------------------------------------------------------
      1          6           0        0.000000    0.334702    0.000000
      2          8           0        1.145903   -0.125624    0.000000
      3          8           0       -1.145903   -0.125403    0.000000
 ---------------------------------------------------------------------
                    Distance matrix (angstroms):
                    1          2          3
     1  C    0.000000
     2  O    1.234906   0.000000
     3  O    1.234824   2.291806   0.000000
 Stoichiometry    CO2(1-,2)
 Framework group  CS[SG(CO2)]
 Deg. of freedom     3
 Full point group                 CS      NOp   2
 Largest Abelian subgroup         CS      NOp   2
 Largest concise Abelian subgroup C1      NOp   1
                         Standard orientation:                         
 ---------------------------------------------------------------------
 Center     Atomic      Atomic             Coordinates (Angstroms)
 Number     Number       Type             X           Y           Z
 ---------------------------------------------------------------------
      1          6           0        0.000000    0.334702    0.000000
      2          8           0        1.145903   -0.125624    0.000000
      3          8           0       -1.145903   -0.125403    0.000000
 ---------------------------------------------------------------------
 Rotational constants (GHZ):         273.4348268          12.0312170          11.5241508
 Standard basis: 6-31+G(d,p) (6D, 7F)
 There are    42 symmetry adapted cartesian basis functions of A'  symmetry.
 There are    15 symmetry adapted cartesian basis functions of A"  symmetry.
 There are    42 symmetry adapted basis functions of A'  symmetry.
 There are    15 symmetry adapted basis functions of A"  symmetry.
    57 basis functions,    96 primitive gaussians,    57 cartesian basis functions
    12 alpha electrons       11 beta electrons
       nuclear repulsion energy        55.9164917747 Hartrees.
 NAtoms=    3 NActive=    3 NUniq=    3 SFac= 1.00D+00 NAtFMM=   60 NAOKFM=F Big=F
 Integral buffers will be    131072 words long.
 Raffenetti 2 integral format.
 Two-electron integral symmetry is turned on.
 ------------------------------------------------------------------------------
 Polarizable Continuum Model (PCM)
 =================================
 Model                : PCM.
 Atomic radii         : SMD-Coulomb.
 Polarization charges : Total charges.
 Charge compensation  : None.
 Solution method      : On-the-fly selection.
 Cavity type          : VdW (van der Waals Surface) (Alpha=1.000).
 Cavity algorithm     : GePol (No added spheres)
                        Default sphere list used, NSphG=    3.
                        Lebedev-Laikov grids with approx.  5.0 points / Ang**2.
                        Smoothing algorithm: York/Karplus (Gamma=1.0000).
                        Polarization charges: spherical gaussians, with
                                              point-specific exponents (IZeta= 3).
                        Self-potential: point-specific (ISelfS= 7).
                        Self-field    : sphere-specific E.n sum rule (ISelfD= 2).
 1st derivatives      : Analytical E(r).r(x)/FMM algorithm (CHGder, D1EAlg=3).
                        Cavity 1st derivative terms included.
 Solvent              : Water, Eps=  78.355300 Eps(inf)=   1.777849
 ------------------------------------------------------------------------------
 Spheres list:
 ISph  on   Nord     Re0    Alpha      Xe            Ye            Ze
    1   C      1    1.8500  1.000      0.000000      0.334702      0.000000
    2   O      2    1.5200  1.000      1.145903     -0.125624      0.000000
    3   O      3    1.5200  1.000     -1.145903     -0.125403      0.000000
 ------------------------------------------------------------------------------
 ------------------------------------------------------------------------------
 Atomic radii for non-electrostatic terms: SMD-CDS.
 ------------------------------------------------------------------------------
 Nuclear repulsion after PCM non-electrostatic terms =       55.9250218481 Hartrees.
 One-electron integrals computed using PRISM.
 NBasis=    57 RedAO= T EigKep=  4.98D-03  NBF=    42    15
 NBsUse=    57 1.00D-06 EigRej= -1.00D+00 NBFU=    42    15
 ExpMin= 4.38D-02 ExpMax= 5.48D+03 ExpMxC= 8.25D+02 IAcc=3 IRadAn=         5 AccDes= 0.00D+00
 Harris functional with IExCor= 1009 and IRadAn=       5 diagonalized for initial guess.
 HarFok:  IExCor= 1009 AccDes= 0.00D+00 IRadAn=         5 IDoV= 1 UseB2=F ITyADJ=14
 ICtDFT=  3500011 ScaDFX=  1.000000  1.000000  1.000000  1.000000
 FoFCou: FMM=F IPFlag=           0 FMFlag=      100000 FMFlg1=           0
         NFxFlg=           0 DoJE=T BraDBF=F KetDBF=T FulRan=T
         wScrn=  0.000000 ICntrl=       500 IOpCl=  0 I1Cent=   200000004 NGrid=           0
         NMat0=    1 NMatS0=      1 NMatT0=    0 NMatD0=    1 NMtDS0=    0 NMtDT0=    0
 Petite list used in FoFCou.
 Initial guess orbital symmetries:
 Alpha Orbitals:
       Occupied  (A') (A') (A') (A') (A') (A') (A') (A") (A') (A")
                 (A') (A')
       Virtual   (A") (A') (A') (A') (A") (A') (A') (A") (A') (A")
                 (A') (A') (A') (A') (A') (A') (A") (A') (A') (A")
                 (A') (A') (A') (A") (A') (A") (A') (A") (A') (A')
                 (A') (A") (A') (A') (A") (A') (A") (A') (A") (A')
                 (A') (A') (A') (A') (A')
 Beta  Orbitals:
       Occupied  (A') (A') (A') (A') (A') (A') (A') (A") (A') (A")
                 (A')
       Virtual   (A') (A") (A') (A') (A') (A") (A') (A') (A") (A')
                 (A") (A') (A') (A') (A') (A') (A') (A") (A') (A')
                 (A") (A') (A') (A') (A") (A') (A") (A') (A") (A')
                 (A') (A') (A") (A') (A') (A") (A') (A") (A') (A")
                 (A') (A') (A') (A') (A') (A')
 The electronic state of the initial guess is 2-A'.
 Initial guess <Sx>= 0.0000 <Sy>= 0.0000 <Sz>= 0.5000 <S**2>= 0.7500 S= 0.5000
 Keep R1 and R2 ints in memory in symmetry-blocked form, NReq=19055733.
 Requested convergence on RMS density matrix=1.00D-08 within 128 cycles.
 Requested convergence on MAX density matrix=1.00D-06.
 Requested convergence on             energy=1.00D-06.
 No special actions if energy rises.
 Inv3:  Mode=1 IEnd=      451632.
 Iteration    1 A*A^-1 deviation from unit magnitude is 3.11D-15 for    187.
 Iteration    1 A*A^-1 deviation from orthogonality  is 3.13D-15 for    288     90.
 Iteration    1 A^-1*A deviation from unit magnitude is 2.89D-15 for    187.
 Iteration    1 A^-1*A deviation from orthogonality  is 1.10D-15 for    321    141.
 Error on total polarization charges =  0.05504
 SCF Done:  E(UM062X) =  -188.598617927     A.U. after   13 cycles
            NFock= 13  Conv=0.71D-08     -V/T= 2.0082
 <Sx>= 0.0000 <Sy>= 0.0000 <Sz>= 0.5000 <S**2>= 0.7542 S= 0.5021
 <L.S>= 0.000000000000E+00
 SMD-CDS (non-electrostatic) energy       (kcal/mol) =       5.35
 (included in total energy above)
 Annihilation of the first spin contaminant:
 S**2 before annihilation     0.7542,   after     0.7500

 **********************************************************************

            Population analysis using the SCF density.

 **********************************************************************

 Orbital symmetries:
 Alpha Orbitals:
       Occupied  (A') (A') (A') (A') (A') (A') (A') (A') (A") (A')
                 (A") (A')
       Virtual   (A') (A') (A") (A') (A") (A') (A') (A") (A') (A")
                 (A') (A') (A') (A') (A') (A') (A") (A') (A') (A')
                 (A") (A') (A') (A") (A') (A") (A') (A") (A') (A')
                 (A') (A") (A') (A') (A") (A') (A") (A') (A") (A')
                 (A') (A') (A') (A') (A')
 Beta  Orbitals:
       Occupied  (A') (A') (A') (A') (A') (A') (A') (A") (A') (A")
                 (A')
       Virtual   (A') (A') (A") (A') (A') (A") (A') (A') (A") (A')
                 (A") (A') (A') (A') (A') (A') (A') (A") (A') (A')
                 (A') (A") (A') (A') (A") (A') (A") (A') (A") (A')
                 (A') (A') (A") (A') (A') (A") (A') (A") (A') (A")
                 (A') (A') (A') (A') (A') (A')
 The electronic state is 2-A'.
 Alpha  occ. eigenvalues --  -19.63249 -19.63247 -10.64463  -1.18542  -1.10834
 Alpha  occ. eigenvalues --   -0.60366  -0.52791  -0.51289  -0.49985  -0.36886
 Alpha  occ. eigenvalues --   -0.35982  -0.21170
 Alpha virt. eigenvalues --    0.06418   0.06803   0.07974   0.09607   0.11250
 Alpha virt. eigenvalues --    0.21251   0.21807   0.23616   0.26389   0.28325
 Alpha virt. eigenvalues --    0.28696   0.29110   0.33158   0.45494   0.59108
 Alpha virt. eigenvalues --    0.70647   0.72583   0.87007   1.11489   1.21391
 Alpha virt. eigenvalues --    1.24643   1.29798   1.29885   1.32930   1.34723
 Alpha virt. eigenvalues --    1.51465   1.51972   1.55185   1.63164   1.64549
 Alpha virt. eigenvalues --    1.83255   1.86364   1.91645   1.92573   1.96826
 Alpha virt. eigenvalues --    2.27770   2.40570   2.77760   2.82599   2.89228
 Alpha virt. eigenvalues --    3.02881   3.15732   4.10539   4.18977   4.41100
  Beta  occ. eigenvalues --  -19.62782 -19.62779 -10.63780  -1.16675  -1.08845
  Beta  occ. eigenvalues --   -0.58241  -0.50639  -0.48722  -0.46892  -0.35617
  Beta  occ. eigenvalues --   -0.33983
  Beta virt. eigenvalues --   -0.01801   0.05296   0.05622   0.06159   0.08681
  Beta virt. eigenvalues --    0.12607   0.19301   0.19455   0.21862   0.25441
  Beta virt. eigenvalues --    0.27440   0.27681   0.29208   0.32966   0.45920
  Beta virt. eigenvalues --    0.61391   0.72852   0.73329   0.87880   1.11855
  Beta virt. eigenvalues --    1.21621   1.24445   1.30561   1.30699   1.32321
  Beta virt. eigenvalues --    1.35442   1.52929   1.53029   1.57139   1.63766
  Beta virt. eigenvalues --    1.64353   1.83878   1.86712   1.92185   1.94314
  Beta virt. eigenvalues --    1.98045   2.29960   2.41480   2.80436   2.84871
  Beta virt. eigenvalues --    2.90111   3.03269   3.17083   4.10580   4.18952
  Beta virt. eigenvalues --    4.47337
          Condensed to atoms (all electrons):
               1          2          3
     1  C    5.255641   0.225690   0.225766
     2  O    0.225690   8.539778  -0.118953
     3  O    0.225766  -0.118953   8.539575
          Atomic-Atomic Spin Densities.
               1          2          3
     1  C    1.246931  -0.242247  -0.242233
     2  O   -0.242247   0.325703   0.035319
     3  O   -0.242233   0.035319   0.325687
 Mulliken charges and spin densities:
               1          2
     1  C    0.292903   0.762451
     2  O   -0.646515   0.118776
     3  O   -0.646388   0.118774
 Sum of Mulliken charges =  -1.00000   1.00000
 Mulliken charges and spin densities with hydrogens summed into heavy atoms:
               1          2
     1  C    0.292903   0.762451
     2  O   -0.646515   0.118776
     3  O   -0.646388   0.118774
 Electronic spatial extent (au):  <R**2>=            127.3357
 Charge=             -1.0000 electrons
 Dipole moment (field-independent basis, Debye):
    X=             -0.0008    Y=              0.2917    Z=              0.0000  Tot=              0.2917
 Quadrupole moment (field-independent basis, Debye-Ang):
   XX=            -27.5963   YY=            -20.0771   ZZ=            -18.2455
   XY=              0.0007   XZ=              0.0000   YZ=              0.0000
 Traceless Quadrupole moment (field-independent basis, Debye-Ang):
   XX=             -5.6234   YY=              1.8959   ZZ=              3.7275
   XY=              0.0007   XZ=              0.0000   YZ=              0.0000
 Octapole moment (field-independent basis, Debye-Ang**2):
  XXX=             -0.0025  YYY=             -3.6875  ZZZ=              0.0000  XYY=             -0.0009
  XXY=              0.0292  XXZ=              0.0000  XZZ=             -0.0007  YZZ=             -0.8236
  YYZ=              0.0000  XYZ=              0.0000
 Hexadecapole moment (field-independent basis, Debye-Ang**3):
 XXXX=           -133.3451 YYYY=            -32.5888 ZZZZ=            -20.1716 XXXY=              0.0055
 XXXZ=              0.0000 YYYX=              0.0047 YYYZ=              0.0000 ZZZX=              0.0000
 ZZZY=              0.0000 XXYY=            -25.9027 XXZZ=            -24.1427 YYZZ=             -8.6137
 XXYZ=              0.0000 YYXZ=              0.0000 ZZXY=              0.0016
 N-N= 5.592502184811D+01 E-N=-5.620155891173D+02  KE= 1.870608292247D+02
 Symmetry A'   KE= 1.790955311810D+02
 Symmetry A"   KE= 7.965298043735D+00
 Symmetry A'   SP= 1.000000000000D+00
 Symmetry A"   SP=-7.057558984653D-15
                          Isotropic Fermi Contact Couplings
        Atom                 a.u.       MegaHertz       Gauss      10(-4) cm-1
     1  C(13)              0.38924     437.57989     156.13939     145.96094
     2  O(17)              0.15839     -96.01500     -34.26054     -32.02716
     3  O(17)              0.15838     -96.01199     -34.25947     -32.02615
 --------------------------------------------------------
       Center         ----  Spin Dipole Couplings  ----
                      3XX-RR        3YY-RR        3ZZ-RR
 --------------------------------------------------------
     1   Atom       -0.292163      0.535433     -0.243270
     2   Atom       -0.318122      0.773878     -0.455756
     3   Atom       -0.318086      0.773854     -0.455768
 --------------------------------------------------------
                        XY            XZ            YZ
 --------------------------------------------------------
     1   Atom        0.000101      0.000000      0.000000
     2   Atom       -0.227928      0.000000      0.000000
     3   Atom        0.227948      0.000000      0.000000
 --------------------------------------------------------


 ---------------------------------------------------------------------------------
              Anisotropic Spin Dipole Couplings in Principal Axis System
 ---------------------------------------------------------------------------------

       Atom             a.u.   MegaHertz   Gauss  10(-4) cm-1        Axes

              Baa    -0.2922   -39.206   -13.990   -13.078  1.0000 -0.0001 -0.0000
     1 C(13)  Bbb    -0.2433   -32.645   -11.648   -10.889  0.0000  0.0000  1.0000
              Bcc     0.5354    71.850    25.638    23.967  0.0001  1.0000  0.0000
 
              Baa    -0.4558    32.978    11.767    11.000  0.0000  0.0000  1.0000
     2 O(17)  Bbb    -0.3638    26.323     9.393     8.781  0.9805  0.1964  0.0000
              Bcc     0.8195   -59.302   -21.160   -19.781 -0.1964  0.9805  0.0000
 
              Baa    -0.4558    32.979    11.768    11.001  0.0000  0.0000  1.0000
     3 O(17)  Bbb    -0.3638    26.322     9.392     8.780  0.9805 -0.1965 -0.0000
              Bcc     0.8195   -59.301   -21.160   -19.781  0.1965  0.9805  0.0000
 

 ---------------------------------------------------------------------------------

 D1PCM: PCM CHGder 1st derivatives, ID1Alg=3 FixD1E=F DoIter=F DoCFld=F I1PDM=0.
 Calling FoFJK, ICntrl=      2127 FMM=F ISym2X=1 I1Cent= 0 IOpClX= 1 NMat=1 NMatS=1 NMatT=0.
 ***** Axes restored to original set *****
 -------------------------------------------------------------------
 Center     Atomic                   Forces (Hartrees/Bohr)
 Number     Number              X              Y              Z
 -------------------------------------------------------------------
      1        6           0.000076459    0.014549115   -0.000000000
      2        8           0.002619212   -0.007259482    0.000000000
      3        8          -0.002695671   -0.007289633   -0.000000000
 -------------------------------------------------------------------
 Cartesian Forces:  Max     0.014549115 RMS     0.006070405

 GradGradGradGradGradGradGradGradGradGradGradGradGradGradGradGradGradGrad
 Berny optimization.
 FormGI is forming the generalized inverse of G from B-inverse, IUseBI=4.
 Internal  Forces:  Max     0.013441520 RMS     0.008837094
 Search for a local minimum.
 Step number   1 out of a maximum of   20
 All quantities printed in internal units (Hartrees-Bohrs-Radians)
 Mixed Optimization -- RFO/linear search
 Second derivative matrix not updated -- first step.
 The second derivative matrix:
                          R1        R2        A1
           R1           0.89072
           R2           0.00000   0.89106
           A1           0.00000   0.00000   0.25000
 ITU=  0
     Eigenvalues ---    0.25000   0.89072   0.89106
 RFO step:  Lambda=-7.80562583D-04 EMin= 2.50000000D-01
 Linear search not attempted -- first point.
 Iteration  1 RMS(Cart)=  0.03189071 RMS(Int)=  0.00068589
 Iteration  2 RMS(Cart)=  0.00069985 RMS(Int)=  0.00000004
 Iteration  3 RMS(Cart)=  0.00000004 RMS(Int)=  0.00000000
 ClnCor:  largest displacement from symmetrization is 0.00D+00 for atom     0.
 Variable       Old X    -DE/DX   Delta X   Delta X   Delta X     New X
                                 (Linear)    (Quad)   (Total)
    R1        2.33363   0.00514   0.00000   0.00576   0.00576   2.33940
    R2        2.33348   0.00522   0.00000   0.00585   0.00585   2.33933
    A1        2.37779  -0.01344   0.00000  -0.05360  -0.05360   2.32419
         Item               Value     Threshold  Converged?
 Maximum Force            0.013442     0.000450     NO 
 RMS     Force            0.008837     0.000300     NO 
 Maximum Displacement     0.040014     0.001800     NO 
 RMS     Displacement     0.032172     0.001200     NO 
 Predicted change in Energy=-3.914322D-04
 GradGradGradGradGradGradGradGradGradGradGradGradGradGradGradGradGradGrad

                          Input orientation:                          
 ---------------------------------------------------------------------
 Center     Atomic      Atomic             Coordinates (Angstroms)
 Number     Number       Type             X           Y           Z
 ---------------------------------------------------------------------
      1          6           0        0.000018    0.355876    0.000000
      2          8           0        1.135970   -0.136207    0.000000
      3          8           0       -1.135988   -0.135995    0.000000
 ---------------------------------------------------------------------
                    Distance matrix (angstroms):
                    1          2          3
     1  C    0.000000
     2  O    1.237955   0.000000
     3  O    1.237920   2.271958   0.000000
 Stoichiometry    CO2(1-,2)
 Framework group  CS[SG(CO2)]
 Deg. of freedom     3
 Full point group                 CS      NOp   2
 Largest Abelian subgroup         CS      NOp   2
 Largest concise Abelian subgroup C1      NOp   1
                         Standard orientation:                         
 ---------------------------------------------------------------------
 Center     Atomic      Atomic             Coordinates (Angstroms)
 Number     Number       Type             X           Y           Z
 ---------------------------------------------------------------------
      1          6           0        0.000000    0.357802    0.000000
      2          8           0        1.135979   -0.134220    0.000000
      3          8           0       -1.135979   -0.134131    0.000000
 ---------------------------------------------------------------------
 Rotational constants (GHZ):         239.2690728          12.2423484          11.6464506
 Standard basis: 6-31+G(d,p) (6D, 7F)
 There are    42 symmetry adapted cartesian basis functions of A'  symmetry.
 There are    15 symmetry adapted cartesian basis functions of A"  symmetry.
 There are    42 symmetry adapted basis functions of A'  symmetry.
 There are    15 symmetry adapted basis functions of A"  symmetry.
    57 basis functions,    96 primitive gaussians,    57 cartesian basis functions
    12 alpha electrons       11 beta electrons
       nuclear repulsion energy        55.9434881398 Hartrees.
 NAtoms=    3 NActive=    3 NUniq=    3 SFac= 1.00D+00 NAtFMM=   60 NAOKFM=F Big=F
 Integral buffers will be    131072 words long.
 Raffenetti 2 integral format.
 Two-electron integral symmetry is turned on.
 ------------------------------------------------------------------------------
 Polarizable Continuum Model (PCM)
 =================================
 Model                : PCM.
 Atomic radii         : SMD-Coulomb.
 Polarization charges : Total charges.
 Charge compensation  : None.
 Solution method      : On-the-fly selection.
 Cavity type          : VdW (van der Waals Surface) (Alpha=1.000).
 Cavity algorithm     : GePol (No added spheres)
                        Default sphere list used, NSphG=    3.
                        Lebedev-Laikov grids with approx.  5.0 points / Ang**2.
                        Smoothing algorithm: York/Karplus (Gamma=1.0000).
                        Polarization charges: spherical gaussians, with
                                              point-specific exponents (IZeta= 3).
                        Self-potential: point-specific (ISelfS= 7).
                        Self-field    : sphere-specific E.n sum rule (ISelfD= 2).
 1st derivatives      : Analytical E(r).r(x)/FMM algorithm (CHGder, D1EAlg=3).
                        Cavity 1st derivative terms included.
 Solvent              : Water, Eps=  78.355300 Eps(inf)=   1.777849
 ------------------------------------------------------------------------------
 Spheres list:
 ISph  on   Nord     Re0    Alpha      Xe            Ye            Ze
    1   C      1    1.8500  1.000      0.000000      0.357802      0.000000
    2   O      2    1.5200  1.000      1.135979     -0.134220      0.000000
    3   O      3    1.5200  1.000     -1.135979     -0.134131      0.000000
 ------------------------------------------------------------------------------
 ------------------------------------------------------------------------------
 Atomic radii for non-electrostatic terms: SMD-CDS.
 ------------------------------------------------------------------------------
 Nuclear repulsion after PCM non-electrostatic terms =       55.9520065215 Hartrees.
 One-electron integrals computed using PRISM.
 NBasis=    57 RedAO= T EigKep=  4.95D-03  NBF=    42    15
 NBsUse=    57 1.00D-06 EigRej= -1.00D+00 NBFU=    42    15
 Initial guess from the checkpoint file:  "CO2-.chk"
 B after Tr=    -0.000000    0.000000    0.000000
         Rot=    1.000000   -0.000000   -0.000000   -0.000027 Ang=  -0.00 deg.
 Initial guess orbital symmetries:
 Alpha Orbitals:
       Occupied  (A') (A') (A') (A') (A') (A') (A') (A') (A") (A')
                 (A") (A')
       Virtual   (A') (A') (A") (A') (A") (A') (A') (A") (A') (A")
                 (A') (A') (A') (A') (A') (A') (A") (A') (A') (A')
                 (A") (A') (A') (A") (A') (A") (A') (A") (A') (A')
                 (A') (A") (A') (A') (A") (A') (A") (A') (A") (A')
                 (A') (A') (A') (A') (A')
 Beta  Orbitals:
       Occupied  (A') (A') (A') (A') (A') (A') (A') (A") (A') (A")
                 (A')
       Virtual   (A') (A') (A") (A') (A') (A") (A') (A') (A") (A')
                 (A") (A') (A') (A') (A') (A') (A') (A") (A') (A')
                 (A') (A") (A') (A') (A") (A') (A") (A') (A") (A')
                 (A') (A') (A") (A') (A') (A") (A') (A") (A') (A")
                 (A') (A') (A') (A') (A') (A')
 Initial guess <Sx>= 0.0000 <Sy>= 0.0000 <Sz>= 0.5000 <S**2>= 0.7543 S= 0.5021
 ExpMin= 4.38D-02 ExpMax= 5.48D+03 ExpMxC= 8.25D+02 IAcc=2 IRadAn=         4 AccDes= 0.00D+00
 Harris functional with IExCor= 1009 and IRadAn=       4 diagonalized for initial guess.
 HarFok:  IExCor= 1009 AccDes= 0.00D+00 IRadAn=         4 IDoV= 1 UseB2=F ITyADJ=14
 ICtDFT=  3500011 ScaDFX=  1.000000  1.000000  1.000000  1.000000
 FoFCou: FMM=F IPFlag=           0 FMFlag=      100000 FMFlg1=           0
         NFxFlg=           0 DoJE=T BraDBF=F KetDBF=T FulRan=T
         wScrn=  0.000000 ICntrl=       500 IOpCl=  0 I1Cent=   200000004 NGrid=           0
         NMat0=    1 NMatS0=      1 NMatT0=    0 NMatD0=    1 NMtDS0=    0 NMtDT0=    0
 Petite list used in FoFCou.
 Keep R1 and R2 ints in memory in symmetry-blocked form, NReq=19055733.
 Requested convergence on RMS density matrix=1.00D-08 within 128 cycles.
 Requested convergence on MAX density matrix=1.00D-06.
 Requested convergence on             energy=1.00D-06.
 No special actions if energy rises.
 Inv3:  Mode=1 IEnd=      451632.
 Iteration    1 A*A^-1 deviation from unit magnitude is 4.00D-15 for     94.
 Iteration    1 A*A^-1 deviation from orthogonality  is 2.09D-15 for    357     95.
 Iteration    1 A^-1*A deviation from unit magnitude is 4.00D-15 for     94.
 Iteration    1 A^-1*A deviation from orthogonality  is 1.14D-15 for    326    166.
 Error on total polarization charges =  0.05388
 SCF Done:  E(UM062X) =  -188.598934861     A.U. after   12 cycles
            NFock= 12  Conv=0.33D-08     -V/T= 2.0083
 <Sx>= 0.0000 <Sy>= 0.0000 <Sz>= 0.5000 <S**2>= 0.7543 S= 0.5022
 <L.S>= 0.000000000000E+00
 SMD-CDS (non-electrostatic) energy       (kcal/mol) =       5.35
 (included in total energy above)
 Annihilation of the first spin contaminant:
 S**2 before annihilation     0.7543,   after     0.7500
 D1PCM: PCM CHGder 1st derivatives, ID1Alg=3 FixD1E=F DoIter=F DoCFld=F I1PDM=0.
 Calling FoFJK, ICntrl=      2127 FMM=F ISym2X=1 I1Cent= 0 IOpClX= 1 NMat=1 NMatS=1 NMatT=0.
 ***** Axes restored to original set *****
 -------------------------------------------------------------------
 Center     Atomic                   Forces (Hartrees/Bohr)
 Number     Number              X              Y              Z
 -------------------------------------------------------------------
      1        6           0.000030970   -0.000071656    0.000000000
      2        8           0.003879039    0.000042294   -0.000000000
      3        8          -0.003910009    0.000029362   -0.000000000
 -------------------------------------------------------------------
 Cartesian Forces:  Max     0.003910009 RMS     0.001836175

 GradGradGradGradGradGradGradGradGradGradGradGradGradGradGradGradGradGrad
 Berny optimization.
 Using GEDIIS/GDIIS optimizer.
 FormGI is forming the generalized inverse of G from B-inverse, IUseBI=4.
 Internal  Forces:  Max     0.003697655 RMS     0.003606183
 Search for a local minimum.
 Step number   2 out of a maximum of   20
 All quantities printed in internal units (Hartrees-Bohrs-Radians)
 Mixed Optimization -- RFO/linear search
 Update second derivatives using D2CorX and points    1    2
 DE= -3.17D-04 DEPred=-3.91D-04 R= 8.10D-01
 TightC=F SS=  1.41D+00  RLast= 5.42D-02 DXNew= 5.0454D-01 1.6267D-01
 Trust test= 8.10D-01 RLast= 5.42D-02 DXMaxT set to 3.00D-01
 The second derivative matrix:
                          R1        R2        A1
           R1           0.85959
           R2          -0.03159   0.85901
           A1           0.05922   0.05975   0.33266
 ITU=  1  0
 Use linear search instead of GDIIS.
     Eigenvalues ---    0.31875   0.84162   0.89089
 RFO step:  Lambda=-3.57089542D-05 EMin= 3.18751907D-01
 Quartic linear search produced a step of -0.16288.
 Iteration  1 RMS(Cart)=  0.00759918 RMS(Int)=  0.00002338
 Iteration  2 RMS(Cart)=  0.00001858 RMS(Int)=  0.00000000
 Iteration  3 RMS(Cart)=  0.00000000 RMS(Int)=  0.00000000
 ClnCor:  largest displacement from symmetrization is 8.95D-16 for atom     3.
 Variable       Old X    -DE/DX   Delta X   Delta X   Delta X     New X
                                 (Linear)    (Quad)   (Total)
    R1        2.33940   0.00354  -0.00094   0.00454   0.00360   2.34300
    R2        2.33933   0.00358  -0.00095   0.00459   0.00364   2.34297
    A1        2.32419   0.00370   0.00873   0.00086   0.00959   2.33378
         Item               Value     Threshold  Converged?
 Maximum Force            0.003698     0.000450     NO 
 RMS     Force            0.003606     0.000300     NO 
 Maximum Displacement     0.007769     0.001800     NO 
 RMS     Displacement     0.007597     0.001200     NO 
 Predicted change in Energy=-3.095836D-05
 GradGradGradGradGradGradGradGradGradGradGradGradGradGradGradGradGradGrad

                          Input orientation:                          
 ---------------------------------------------------------------------
 Center     Atomic      Atomic             Coordinates (Angstroms)
 Number     Number       Type             X           Y           Z
 ---------------------------------------------------------------------
      1          6           0        0.000024    0.352742    0.000000
      2          8           0        1.140075   -0.134639    0.000000
      3          8           0       -1.140099   -0.134429    0.000000
 ---------------------------------------------------------------------
                    Distance matrix (angstroms):
                    1          2          3
     1  C    0.000000
     2  O    1.239862   0.000000
     3  O    1.239845   2.280175   0.000000
 Stoichiometry    CO2(1-,2)
 Framework group  CS[SG(CO2)]
 Deg. of freedom     3
 Full point group                 CS      NOp   2
 Largest Abelian subgroup         CS      NOp   2
 Largest concise Abelian subgroup C1      NOp   1
                         Standard orientation:                         
 ---------------------------------------------------------------------
 Center     Atomic      Atomic             Coordinates (Angstroms)
 Number     Number       Type             X           Y           Z
 ---------------------------------------------------------------------
      1          6           0        0.000000    0.354383    0.000000
      2          8           0        1.140087   -0.132915    0.000000
      3          8           0       -1.140087   -0.132872    0.000000
 ---------------------------------------------------------------------
 Rotational constants (GHZ):         243.9078765          12.1542753          11.5773591
 Standard basis: 6-31+G(d,p) (6D, 7F)
 There are    42 symmetry adapted cartesian basis functions of A'  symmetry.
 There are    15 symmetry adapted cartesian basis functions of A"  symmetry.
 There are    42 symmetry adapted basis functions of A'  symmetry.
 There are    15 symmetry adapted basis functions of A"  symmetry.
    57 basis functions,    96 primitive gaussians,    57 cartesian basis functions
    12 alpha electrons       11 beta electrons
       nuclear repulsion energy        55.8263527101 Hartrees.
 NAtoms=    3 NActive=    3 NUniq=    3 SFac= 1.00D+00 NAtFMM=   60 NAOKFM=F Big=F
 Integral buffers will be    131072 words long.
 Raffenetti 2 integral format.
 Two-electron integral symmetry is turned on.
 ------------------------------------------------------------------------------
 Polarizable Continuum Model (PCM)
 =================================
 Model                : PCM.
 Atomic radii         : SMD-Coulomb.
 Polarization charges : Total charges.
 Charge compensation  : None.
 Solution method      : On-the-fly selection.
 Cavity type          : VdW (van der Waals Surface) (Alpha=1.000).
 Cavity algorithm     : GePol (No added spheres)
                        Default sphere list used, NSphG=    3.
                        Lebedev-Laikov grids with approx.  5.0 points / Ang**2.
                        Smoothing algorithm: York/Karplus (Gamma=1.0000).
                        Polarization charges: spherical gaussians, with
                                              point-specific exponents (IZeta= 3).
                        Self-potential: point-specific (ISelfS= 7).
                        Self-field    : sphere-specific E.n sum rule (ISelfD= 2).
 1st derivatives      : Analytical E(r).r(x)/FMM algorithm (CHGder, D1EAlg=3).
                        Cavity 1st derivative terms included.
 Solvent              : Water, Eps=  78.355300 Eps(inf)=   1.777849
 ------------------------------------------------------------------------------
 Spheres list:
 ISph  on   Nord     Re0    Alpha      Xe            Ye            Ze
    1   C      1    1.8500  1.000      0.000000      0.354383      0.000000
    2   O      2    1.5200  1.000      1.140087     -0.132915      0.000000
    3   O      3    1.5200  1.000     -1.140087     -0.132872      0.000000
 ------------------------------------------------------------------------------
 ------------------------------------------------------------------------------
 Atomic radii for non-electrostatic terms: SMD-CDS.
 ------------------------------------------------------------------------------
 Nuclear repulsion after PCM non-electrostatic terms =       55.8348556173 Hartrees.
 One-electron integrals computed using PRISM.
 NBasis=    57 RedAO= T EigKep=  5.01D-03  NBF=    42    15
 NBsUse=    57 1.00D-06 EigRej= -1.00D+00 NBFU=    42    15
 Initial guess from the checkpoint file:  "CO2-.chk"
 B after Tr=     0.000000   -0.000000    0.000000
         Rot=    1.000000   -0.000000   -0.000000   -0.000010 Ang=  -0.00 deg.
 Initial guess orbital symmetries:
 Alpha Orbitals:
       Occupied  (A') (A') (A') (A') (A') (A') (A') (A') (A") (A')
                 (A") (A')
       Virtual   (A') (A') (A") (A') (A") (A') (A') (A") (A') (A")
                 (A') (A') (A') (A') (A') (A') (A") (A') (A') (A')
                 (A") (A') (A') (A") (A') (A") (A') (A") (A') (A')
                 (A') (A") (A') (A') (A") (A') (A") (A') (A") (A')
                 (A') (A') (A') (A') (A')
 Beta  Orbitals:
       Occupied  (A') (A') (A') (A') (A') (A') (A') (A") (A') (A")
                 (A')
       Virtual   (A') (A') (A") (A') (A') (A") (A') (A') (A") (A')
                 (A") (A') (A') (A') (A') (A') (A') (A") (A') (A')
                 (A') (A") (A') (A') (A") (A') (A') (A") (A") (A')
                 (A') (A') (A") (A') (A') (A") (A') (A") (A') (A")
                 (A') (A') (A') (A') (A') (A')
 Initial guess <Sx>= 0.0000 <Sy>= 0.0000 <Sz>= 0.5000 <S**2>= 0.7543 S= 0.5022
 Keep R1 and R2 ints in memory in symmetry-blocked form, NReq=19055733.
 Requested convergence on RMS density matrix=1.00D-08 within 128 cycles.
 Requested convergence on MAX density matrix=1.00D-06.
 Requested convergence on             energy=1.00D-06.
 No special actions if energy rises.
 Inv3:  Mode=1 IEnd=      451632.
 Iteration    1 A*A^-1 deviation from unit magnitude is 2.78D-15 for    186.
 Iteration    1 A*A^-1 deviation from orthogonality  is 3.22D-15 for    358    156.
 Iteration    1 A^-1*A deviation from unit magnitude is 2.44D-15 for    271.
 Iteration    1 A^-1*A deviation from orthogonality  is 1.15D-15 for    158     96.
 Error on total polarization charges =  0.05397
 SCF Done:  E(UM062X) =  -188.598965661     A.U. after   11 cycles
            NFock= 11  Conv=0.47D-08     -V/T= 2.0084
 <Sx>= 0.0000 <Sy>= 0.0000 <Sz>= 0.5000 <S**2>= 0.7543 S= 0.5022
 <L.S>= 0.000000000000E+00
 SMD-CDS (non-electrostatic) energy       (kcal/mol) =       5.34
 (included in total energy above)
 Annihilation of the first spin contaminant:
 S**2 before annihilation     0.7543,   after     0.7500
 D1PCM: PCM CHGder 1st derivatives, ID1Alg=3 FixD1E=F DoIter=F DoCFld=F I1PDM=0.
 Calling FoFJK, ICntrl=      2127 FMM=F ISym2X=1 I1Cent= 0 IOpClX= 1 NMat=1 NMatS=1 NMatT=0.
 ***** Axes restored to original set *****
 -------------------------------------------------------------------
 Center     Atomic                   Forces (Hartrees/Bohr)
 Number     Number              X              Y              Z
 -------------------------------------------------------------------
      1        6           0.000014623    0.000081546   -0.000000000
      2        8           0.000075952   -0.000037607    0.000000000
      3        8          -0.000090575   -0.000043939    0.000000000
 -------------------------------------------------------------------
 Cartesian Forces:  Max     0.000090575 RMS     0.000051834

 GradGradGradGradGradGradGradGradGradGradGradGradGradGradGradGradGradGrad
 Berny optimization.
 Using GEDIIS/GDIIS optimizer.
 FormGI is forming the generalized inverse of G from B-inverse, IUseBI=4.
 Internal  Forces:  Max     0.000100542 RMS     0.000076150
 Search for a local minimum.
 Step number   3 out of a maximum of   20
 All quantities printed in internal units (Hartrees-Bohrs-Radians)
 Mixed Optimization -- En-DIIS/RFO-DIIS
 Update second derivatives using D2CorX and points    1    2    3
 DE= -3.08D-05 DEPred=-3.10D-05 R= 9.95D-01
 TightC=F SS=  1.41D+00  RLast= 1.09D-02 DXNew= 5.0454D-01 3.2620D-02
 Trust test= 9.95D-01 RLast= 1.09D-02 DXMaxT set to 3.00D-01
 The second derivative matrix:
                          R1        R2        A1
           R1           0.84684
           R2          -0.04555   0.84381
           A1           0.05965   0.05943   0.34170
 ITU=  1  1  0
 Use linear search instead of GDIIS.
     Eigenvalues ---    0.32672   0.81473   0.89091
 RFO step:  Lambda=-1.81293436D-08 EMin= 3.26717784D-01
 Quartic linear search produced a step of  0.00938.
 Iteration  1 RMS(Cart)=  0.00008744 RMS(Int)=  0.00000000
 Iteration  2 RMS(Cart)=  0.00000000 RMS(Int)=  0.00000000
 ClnCor:  largest displacement from symmetrization is 4.44D-16 for atom     3.
 Variable       Old X    -DE/DX   Delta X   Delta X   Delta X     New X
                                 (Linear)    (Quad)   (Total)
    R1        2.34300   0.00008   0.00003   0.00008   0.00011   2.34311
    R2        2.34297   0.00010   0.00003   0.00010   0.00013   2.34310
    A1        2.33378  -0.00001   0.00009  -0.00016  -0.00007   2.33371
         Item               Value     Threshold  Converged?
 Maximum Force            0.000101     0.000450     YES
 RMS     Force            0.000076     0.000300     YES
 Maximum Displacement     0.000085     0.001800     YES
 RMS     Displacement     0.000087     0.001200     YES
 Predicted change in Energy=-1.172828D-08
 Optimization completed.
    -- Stationary point found.
                           ----------------------------
                           !   Optimized Parameters   !
                           ! (Angstroms and Degrees)  !
 --------------------------                            --------------------------
 ! Name  Definition              Value          Derivative Info.                !
 --------------------------------------------------------------------------------
 ! R1    R(1,2)                  1.2399         -DE/DX =    0.0001              !
 ! R2    R(1,3)                  1.2398         -DE/DX =    0.0001              !
 ! A1    A(2,1,3)              133.716          -DE/DX =    0.0                 !
 --------------------------------------------------------------------------------
 GradGradGradGradGradGradGradGradGradGradGradGradGradGradGradGradGradGrad

                          Input orientation:                          
 ---------------------------------------------------------------------
 Center     Atomic      Atomic             Coordinates (Angstroms)
 Number     Number       Type             X           Y           Z
 ---------------------------------------------------------------------
      1          6           0        0.000024    0.352742    0.000000
      2          8           0        1.140075   -0.134639    0.000000
      3          8           0       -1.140099   -0.134429    0.000000
 ---------------------------------------------------------------------
                    Distance matrix (angstroms):
                    1          2          3
     1  C    0.000000
     2  O    1.239862   0.000000
     3  O    1.239845   2.280175   0.000000
 Stoichiometry    CO2(1-,2)
 Framework group  CS[SG(CO2)]
 Deg. of freedom     3
 Full point group                 CS      NOp   2
 Largest Abelian subgroup         CS      NOp   2
 Largest concise Abelian subgroup C1      NOp   1
                         Standard orientation:                         
 ---------------------------------------------------------------------
 Center     Atomic      Atomic             Coordinates (Angstroms)
 Number     Number       Type             X           Y           Z
 ---------------------------------------------------------------------
      1          6           0        0.000000    0.354383    0.000000
      2          8           0        1.140087   -0.132915    0.000000
      3          8           0       -1.140087   -0.132872    0.000000
 ---------------------------------------------------------------------
 Rotational constants (GHZ):         243.9078765          12.1542753          11.5773591

 **********************************************************************

            Population analysis using the SCF density.

 **********************************************************************

 Orbital symmetries:
 Alpha Orbitals:
       Occupied  (A') (A') (A') (A') (A') (A') (A') (A') (A") (A')
                 (A") (A')
       Virtual   (A') (A') (A") (A') (A") (A') (A') (A") (A') (A")
                 (A') (A') (A') (A') (A') (A') (A") (A') (A') (A')
                 (A") (A') (A') (A") (A') (A") (A') (A") (A') (A')
                 (A') (A") (A') (A') (A") (A') (A") (A') (A") (A')
                 (A') (A') (A') (A') (A')
 Beta  Orbitals:
       Occupied  (A') (A') (A') (A') (A') (A') (A') (A") (A') (A")
                 (A')
       Virtual   (A') (A') (A") (A') (A') (A") (A') (A') (A") (A')
                 (A") (A') (A') (A') (A') (A') (A') (A") (A') (A')
                 (A') (A") (A') (A') (A") (A') (A') (A") (A") (A')
                 (A') (A') (A") (A') (A') (A") (A') (A") (A') (A")
                 (A') (A') (A') (A') (A') (A')
 The electronic state is 2-A'.
 Alpha  occ. eigenvalues --  -19.63176 -19.63174 -10.64541  -1.18380  -1.10364
 Alpha  occ. eigenvalues --   -0.60397  -0.52613  -0.51146  -0.49785  -0.36590
 Alpha  occ. eigenvalues --   -0.35815  -0.21999
 Alpha virt. eigenvalues --    0.06276   0.06714   0.07728   0.09468   0.10982
 Alpha virt. eigenvalues --    0.21239   0.21577   0.23505   0.26270   0.28129
 Alpha virt. eigenvalues --    0.28735   0.29231   0.33101   0.45719   0.57404
 Alpha virt. eigenvalues --    0.70325   0.72377   0.86584   1.11311   1.21035
 Alpha virt. eigenvalues --    1.24775   1.29218   1.29980   1.32656   1.34529
 Alpha virt. eigenvalues --    1.51312   1.51685   1.55322   1.63453   1.63736
 Alpha virt. eigenvalues --    1.83723   1.86676   1.91624   1.93628   1.96022
 Alpha virt. eigenvalues --    2.27466   2.41712   2.74622   2.80466   2.88291
 Alpha virt. eigenvalues --    3.02187   3.14181   4.10420   4.17529   4.39586
  Beta  occ. eigenvalues --  -19.62709 -19.62707 -10.63839  -1.16518  -1.08374
  Beta  occ. eigenvalues --   -0.58202  -0.50384  -0.48523  -0.46683  -0.35446
  Beta  occ. eigenvalues --   -0.33699
  Beta virt. eigenvalues --   -0.02091   0.05338   0.05681   0.06185   0.08363
  Beta virt. eigenvalues --    0.12353   0.19292   0.19582   0.21973   0.25261
  Beta virt. eigenvalues --    0.27262   0.27851   0.29412   0.32934   0.46166
  Beta virt. eigenvalues --    0.59811   0.72588   0.73173   0.87452   1.11777
  Beta virt. eigenvalues --    1.21351   1.24632   1.30043   1.30855   1.32115
  Beta virt. eigenvalues --    1.35258   1.52706   1.52800   1.57280   1.62683
  Beta virt. eigenvalues --    1.65039   1.84352   1.87039   1.93240   1.94196
  Beta virt. eigenvalues --    1.97215   2.29720   2.42667   2.77275   2.82750
  Beta virt. eigenvalues --    2.89211   3.02642   3.15584   4.10523   4.17572
  Beta virt. eigenvalues --    4.45892
          Condensed to atoms (all electrons):
               1          2          3
     1  C    5.223403   0.237533   0.237549
     2  O    0.237533   8.538021  -0.124785
     3  O    0.237549  -0.124785   8.537980
          Atomic-Atomic Spin Densities.
               1          2          3
     1  C    1.205524  -0.227597  -0.227595
     2  O   -0.227597   0.317955   0.034476
     3  O   -0.227595   0.034476   0.317952
 Mulliken charges and spin densities:
               1          2
     1  C    0.301514   0.750332
     2  O   -0.650770   0.124834
     3  O   -0.650744   0.124833
 Sum of Mulliken charges =  -1.00000   1.00000
 Mulliken charges and spin densities with hydrogens summed into heavy atoms:
               1          2
     1  C    0.301514   0.750332
     2  O   -0.650770   0.124834
     3  O   -0.650744   0.124833
 Electronic spatial extent (au):  <R**2>=            126.8833
 Charge=             -1.0000 electrons
 Dipole moment (field-independent basis, Debye):
    X=             -0.0002    Y=              0.4128    Z=              0.0000  Tot=              0.4128
 Quadrupole moment (field-independent basis, Debye-Ang):
   XX=            -27.6034   YY=            -19.9886   ZZ=            -18.2026
   XY=              0.0001   XZ=              0.0000   YZ=              0.0000
 Traceless Quadrupole moment (field-independent basis, Debye-Ang):
   XX=             -5.6718   YY=              1.9429   ZZ=              3.7289
   XY=              0.0001   XZ=              0.0000   YZ=              0.0000
 Octapole moment (field-independent basis, Debye-Ang**2):
  XXX=             -0.0005  YYY=             -3.5521  ZZZ=              0.0000  XYY=             -0.0002
  XXY=              0.0174  XXZ=              0.0000  XZZ=             -0.0001  YZZ=             -0.7636
  YYZ=              0.0000  XYZ=              0.0000
 Hexadecapole moment (field-independent basis, Debye-Ang**3):
 XXXX=           -132.6808 YYYY=            -32.6265 ZZZZ=            -19.8377 XXXY=              0.0011
 XXXZ=              0.0000 YYYX=              0.0009 YYYZ=              0.0000 ZZZX=              0.0000
 ZZZY=              0.0000 XXYY=            -25.7165 XXZZ=            -23.9683 YYZZ=             -8.5496
 XXYZ=              0.0000 YYXZ=              0.0000 ZZXY=              0.0003
 N-N= 5.583485561734D+01 E-N=-5.618526727993D+02  KE= 1.870369749420D+02
 Symmetry A'   KE= 1.790771593238D+02
 Symmetry A"   KE= 7.959815618232D+00
 Symmetry A'   SP= 1.000000000000D+00
 Symmetry A"   SP= 4.447698008232D-15
                          Isotropic Fermi Contact Couplings
        Atom                 a.u.       MegaHertz       Gauss      10(-4) cm-1
     1  C(13)              0.40418     454.37872     162.13363     151.56443
     2  O(17)              0.14882     -90.21502     -32.19096     -30.09249
     3  O(17)              0.14882     -90.21457     -32.19080     -30.09234
 --------------------------------------------------------
       Center         ----  Spin Dipole Couplings  ----
                      3XX-RR        3YY-RR        3ZZ-RR
 --------------------------------------------------------
     1   Atom       -0.294955      0.539838     -0.244883
     2   Atom       -0.332345      0.794014     -0.461670
     3   Atom       -0.332339      0.794011     -0.461672
 --------------------------------------------------------
                        XY            XZ            YZ
 --------------------------------------------------------
     1   Atom        0.000020      0.000000      0.000000
     2   Atom       -0.209927      0.000000      0.000000
     3   Atom        0.209929      0.000000      0.000000
 --------------------------------------------------------


 ---------------------------------------------------------------------------------
              Anisotropic Spin Dipole Couplings in Principal Axis System
 ---------------------------------------------------------------------------------

       Atom             a.u.   MegaHertz   Gauss  10(-4) cm-1        Axes

              Baa    -0.2950   -39.580   -14.123   -13.203  1.0000 -0.0000 -0.0000
     1 C(13)  Bbb    -0.2449   -32.861   -11.726   -10.961  0.0000  0.0000  1.0000
              Bcc     0.5398    72.441    25.849    24.164  0.0000  1.0000  0.0000
 
              Baa    -0.4617    33.406    11.920    11.143  0.0000  0.0000  1.0000
     2 O(17)  Bbb    -0.3702    26.787     9.558     8.935  0.9841  0.1775  0.0000
              Bcc     0.8319   -60.193   -21.478   -20.078 -0.1775  0.9841  0.0000
 
              Baa    -0.4617    33.406    11.920    11.143  0.0000  0.0000  1.0000
     3 O(17)  Bbb    -0.3702    26.787     9.558     8.935  0.9841 -0.1775 -0.0000
              Bcc     0.8319   -60.193   -21.478   -20.078  0.1775  0.9841  0.0000
 

 ---------------------------------------------------------------------------------

 1\1\GINC-NODE2\FOpt\UM062X\6-31+G(d,p)\C1O2(1-,2)\GONGKE2021\01-Jul-20
 23\0\\# opt freq 6-31+g(d,p) m062x scrf=(SMD,solvent=water)\\"Sketch 2
 "\\-1,2\C,0.0000237864,0.352742497,0.\O,1.1400753916,-0.1346387661,0.\
 O,-1.140099178,-0.1344287309,0.\\Version=ES64L-G16RevA.03\State=2-A'\H
 F=-188.5989657\S2=0.75434\S2-1=0.\S2A=0.750014\RMSD=4.741e-09\RMSF=5.1
 83e-05\Dipole=-0.0000526,0.1624145,0.\Quadrupole=-4.2168721,1.4445132,
 2.7723589,0.0005235,0.,0.\PG=CS [SG(C1O2)]\\@


 DIATOMIC MOLECULES ARE PECULIAR BECAUSE THEY ONLY HAVE TWO ENDS,
 AND THESE ENDS ARE VERY CLOSE TOGETHER.
 KLAUS RUEDENBERG, REV.MOD.PHYS. PG 176, 32, (1960)
 Job cpu time:       0 days  0 hours  3 minutes 36.0 seconds.
 Elapsed time:       0 days  0 hours  0 minutes 12.2 seconds.
 File lengths (MBytes):  RWF=     10 Int=      0 D2E=      0 Chk=      3 Scr=      1
 Normal termination of Gaussian 16 at Sat Jul  1 04:38:18 2023.
 Link1:  Proceeding to internal job step number  2.
 ----------------------------------------------------------------------
 #N Geom=AllCheck Guess=TCheck SCRF=Check GenChk UM062X/6-31+G(d,p) Fre
 q
 ----------------------------------------------------------------------
 1/10=4,29=7,30=1,38=1,40=1/1,3;
 2/12=2,40=1/2;
 3/5=1,6=6,7=111,11=2,14=-4,25=1,30=1,70=2,71=2,74=-55,116=2,140=1/1,2,3;
 4/5=101/1;
 5/5=2,38=6,98=1/2;
 8/6=4,10=90,11=11/1;
 11/6=1,8=1,9=11,15=111,16=1/1,2,10;
 10/6=1/2;
 6/7=2,8=2,9=2,10=2,28=1/1;
 7/8=1,10=1,25=1/1,2,3,16;
 1/10=4,30=1/3;
 99//99;
 Structure from the checkpoint file:  "CO2-.chk"
 ----------
 "Sketch 2"
 ----------
 Charge = -1 Multiplicity = 2
 Redundant internal coordinates found in file.  (old form).
 C,0,0.0000237864,0.352742497,0.
 O,0,1.1400753916,-0.1346387661,0.
 O,0,-1.140099178,-0.1344287309,0.
 Recover connectivity data from disk.

 GradGradGradGradGradGradGradGradGradGradGradGradGradGradGradGradGradGrad
 Berny optimization.
 Initialization pass.
                           ----------------------------
                           !    Initial Parameters    !
                           ! (Angstroms and Degrees)  !
 --------------------------                            --------------------------
 ! Name  Definition              Value          Derivative Info.                !
 --------------------------------------------------------------------------------
 ! R1    R(1,2)                  1.2399         calculate D2E/DX2 analytically  !
 ! R2    R(1,3)                  1.2398         calculate D2E/DX2 analytically  !
 ! A1    A(2,1,3)              133.716          calculate D2E/DX2 analytically  !
 --------------------------------------------------------------------------------
 Trust Radius=3.00D-01 FncErr=1.00D-07 GrdErr=1.00D-07 EigMax=2.50D+02 EigMin=1.00D-04
 Number of steps in this run=      2 maximum allowed number of steps=      2.
 GradGradGradGradGradGradGradGradGradGradGradGradGradGradGradGradGradGrad

                          Input orientation:                          
 ---------------------------------------------------------------------
 Center     Atomic      Atomic             Coordinates (Angstroms)
 Number     Number       Type             X           Y           Z
 ---------------------------------------------------------------------
      1          6           0        0.000024    0.352742    0.000000
      2          8           0        1.140075   -0.134639    0.000000
      3          8           0       -1.140099   -0.134429    0.000000
 ---------------------------------------------------------------------
                    Distance matrix (angstroms):
                    1          2          3
     1  C    0.000000
     2  O    1.239862   0.000000
     3  O    1.239845   2.280175   0.000000
 Stoichiometry    CO2(1-,2)
 Framework group  CS[SG(CO2)]
 Deg. of freedom     3
 Full point group                 CS      NOp   2
 Largest Abelian subgroup         CS      NOp   2
 Largest concise Abelian subgroup C1      NOp   1
                         Standard orientation:                         
 ---------------------------------------------------------------------
 Center     Atomic      Atomic             Coordinates (Angstroms)
 Number     Number       Type             X           Y           Z
 ---------------------------------------------------------------------
      1          6           0        0.000000    0.354383    0.000000
      2          8           0        1.140087   -0.132915    0.000000
      3          8           0       -1.140087   -0.132872    0.000000
 ---------------------------------------------------------------------
 Rotational constants (GHZ):         243.9078765          12.1542753          11.5773591
 Standard basis: 6-31+G(d,p) (6D, 7F)
 There are    42 symmetry adapted cartesian basis functions of A'  symmetry.
 There are    15 symmetry adapted cartesian basis functions of A"  symmetry.
 There are    42 symmetry adapted basis functions of A'  symmetry.
 There are    15 symmetry adapted basis functions of A"  symmetry.
    57 basis functions,    96 primitive gaussians,    57 cartesian basis functions
    12 alpha electrons       11 beta electrons
       nuclear repulsion energy        55.8263527101 Hartrees.
 NAtoms=    3 NActive=    3 NUniq=    3 SFac= 1.00D+00 NAtFMM=   60 NAOKFM=F Big=F
 Integral buffers will be    131072 words long.
 Raffenetti 2 integral format.
 Two-electron integral symmetry is turned on.
 Force inversion solution in PCM.
 ------------------------------------------------------------------------------
 Polarizable Continuum Model (PCM)
 =================================
 Model                : PCM.
 Atomic radii         : SMD-Coulomb.
 Polarization charges : Total charges.
 Charge compensation  : None.
 Solution method      : Matrix inversion.
 Cavity type          : VdW (van der Waals Surface) (Alpha=1.000).
 Cavity algorithm     : GePol (No added spheres)
                        Default sphere list used, NSphG=    3.
                        Lebedev-Laikov grids with approx.  5.0 points / Ang**2.
                        Smoothing algorithm: York/Karplus (Gamma=1.0000).
                        Polarization charges: spherical gaussians, with
                                              point-specific exponents (IZeta= 3).
                        Self-potential: point-specific (ISelfS= 7).
                        Self-field    : sphere-specific E.n sum rule (ISelfD= 2).
 1st derivatives      : Analytical E(r).r(x)/FMM algorithm (CHGder, D1EAlg=3).
                        Cavity 1st derivative terms included.
 2nd derivatives      : Analytical E(r).r(xy)/FMM algorithm (CHGder, D2EAlg=3).
                        Cavity 2nd derivative terms included.
 Solvent              : Water, Eps=  78.355300 Eps(inf)=   1.777849
 ------------------------------------------------------------------------------
 Spheres list:
 ISph  on   Nord     Re0    Alpha      Xe            Ye            Ze
    1   C      1    1.8500  1.000      0.000000      0.354383      0.000000
    2   O      2    1.5200  1.000      1.140087     -0.132915      0.000000
    3   O      3    1.5200  1.000     -1.140087     -0.132872      0.000000
 ------------------------------------------------------------------------------
 ------------------------------------------------------------------------------
 Atomic radii for non-electrostatic terms: SMD-CDS.
 ------------------------------------------------------------------------------
 Nuclear repulsion after PCM non-electrostatic terms =       55.8348556173 Hartrees.
 One-electron integrals computed using PRISM.
 NBasis=    57 RedAO= T EigKep=  5.01D-03  NBF=    42    15
 NBsUse=    57 1.00D-06 EigRej= -1.00D+00 NBFU=    42    15
 Initial guess from the checkpoint file:  "CO2-.chk"
 B after Tr=     0.000000    0.000000    0.000000
         Rot=    1.000000    0.000000    0.000000    0.000000 Ang=   0.00 deg.
 Initial guess orbital symmetries:
 Alpha Orbitals:
       Occupied  (A') (A') (A') (A') (A') (A') (A') (A') (A") (A')
                 (A") (A')
       Virtual   (A') (A') (A") (A') (A") (A') (A') (A") (A') (A")
                 (A') (A') (A') (A') (A') (A') (A") (A') (A') (A')
                 (A") (A') (A') (A") (A') (A") (A') (A") (A') (A')
                 (A') (A") (A') (A') (A") (A') (A") (A') (A") (A')
                 (A') (A') (A') (A') (A')
 Beta  Orbitals:
       Occupied  (A') (A') (A') (A') (A') (A') (A') (A") (A') (A")
                 (A')
       Virtual   (A') (A') (A") (A') (A') (A") (A') (A') (A") (A')
                 (A") (A') (A') (A') (A') (A') (A') (A") (A') (A')
                 (A') (A") (A') (A') (A") (A') (A') (A") (A") (A')
                 (A') (A') (A") (A') (A') (A") (A') (A") (A') (A")
                 (A') (A') (A') (A') (A') (A')
 Initial guess <Sx>= 0.0000 <Sy>= 0.0000 <Sz>= 0.5000 <S**2>= 0.7543 S= 0.5022
 Keep R1 and R2 ints in memory in symmetry-blocked form, NReq=19055733.
 Requested convergence on RMS density matrix=1.00D-08 within 128 cycles.
 Requested convergence on MAX density matrix=1.00D-06.
 Requested convergence on             energy=1.00D-06.
 No special actions if energy rises.
 Inv3:  Mode=1 IEnd=      451632.
 Iteration    1 A*A^-1 deviation from unit magnitude is 2.44D-15 for    171.
 Iteration    1 A*A^-1 deviation from orthogonality  is 3.15D-15 for    358    156.
 Iteration    1 A^-1*A deviation from unit magnitude is 2.44D-15 for    354.
 Iteration    1 A^-1*A deviation from orthogonality  is 1.22D-15 for    158     96.
 Error on total polarization charges =  0.05397
 SCF Done:  E(UM062X) =  -188.598965661     A.U. after    1 cycles
            NFock=  1  Conv=0.46D-09     -V/T= 2.0084
 <Sx>= 0.0000 <Sy>= 0.0000 <Sz>= 0.5000 <S**2>= 0.7543 S= 0.5022
 <L.S>= 0.000000000000E+00
 SMD-CDS (non-electrostatic) energy       (kcal/mol) =       5.34
 (included in total energy above)
 Annihilation of the first spin contaminant:
 S**2 before annihilation     0.7543,   after     0.7500
 DoSCS=F DFT=T ScalE2(SS,OS)=  1.000000  1.000000
 Range of M.O.s used for correlation:     1    57
 NBasis=    57 NAE=    12 NBE=    11 NFC=     0 NFV=     0
 NROrb=     57 NOA=    12 NOB=    11 NVA=    45 NVB=    46
 Symmetrizing basis deriv contribution to polar:
 IMax=3 JMax=2 DiffMx= 0.00D+00
 G2DrvN: will do     4 centers at a time, making    1 passes.
 Calling FoFCou, ICntrl=  3107 FMM=F I1Cent=   0 AccDes= 0.00D+00.
 NEqPCM:  Using equilibrium solvation (IEInf=0, Eps=  78.3553, EpsInf=   1.7778)
 G2PCM: DoFxE=T DoFxN=T DoGrad=T DoDP/DQ/DG/TGxP=FFFF NFrqRd=   0 IEInf=0 SqF1=F DoCFld=F IF1Alg=4.
 End of G2Drv F.D. properties file   721 does not exist.
 End of G2Drv F.D. properties file   722 does not exist.
 End of G2Drv F.D. properties file   788 does not exist.
          IDoAtm=111
 NEqPCM:  Using equilibrium solvation (IEInf=0, Eps=  78.3553, EpsInf=   1.7778)
          Differentiating once with respect to electric field.
                with respect to dipole field.
          Differentiating once with respect to nuclear coordinates.
 Keep R1 and R2 ints in memory in symmetry-blocked form, NReq=18988553.
          There are    12 degrees of freedom in the 1st order CPHF.  IDoFFX=6 NUNeed=     3.
      9 vectors produced by pass  0 Test12= 8.72D-15 8.33D-09 XBig12= 3.67D+01 2.67D+00.
 AX will form     9 AO Fock derivatives at one time.
      9 vectors produced by pass  1 Test12= 8.72D-15 8.33D-09 XBig12= 1.07D+01 7.68D-01.
      9 vectors produced by pass  2 Test12= 8.72D-15 8.33D-09 XBig12= 6.10D-01 3.65D-01.
      9 vectors produced by pass  3 Test12= 8.72D-15 8.33D-09 XBig12= 2.19D-02 4.58D-02.
      9 vectors produced by pass  4 Test12= 8.72D-15 8.33D-09 XBig12= 4.51D-04 4.87D-03.
      9 vectors produced by pass  5 Test12= 8.72D-15 8.33D-09 XBig12= 1.10D-05 9.74D-04.
      9 vectors produced by pass  6 Test12= 8.72D-15 8.33D-09 XBig12= 1.57D-07 9.18D-05.
      9 vectors produced by pass  7 Test12= 8.72D-15 8.33D-09 XBig12= 1.59D-09 9.89D-06.
      6 vectors produced by pass  8 Test12= 8.72D-15 8.33D-09 XBig12= 1.05D-11 8.19D-07.
      2 vectors produced by pass  9 Test12= 8.72D-15 8.33D-09 XBig12= 7.19D-14 7.55D-08.
 InvSVY:  IOpt=1 It=  1 EMax= 1.22D-15
 Solved reduced A of dimension    80 with     9 vectors.
 Isotropic polarizability for W=    0.000000       32.80 Bohr**3.
 End of Minotr F.D. properties file   721 does not exist.
 End of Minotr F.D. properties file   722 does not exist.
 End of Minotr F.D. properties file   788 does not exist.

 **********************************************************************

            Population analysis using the SCF density.

 **********************************************************************

 Orbital symmetries:
 Alpha Orbitals:
       Occupied  (A') (A') (A') (A') (A') (A') (A') (A') (A") (A')
                 (A") (A')
       Virtual   (A') (A') (A") (A') (A") (A') (A') (A") (A') (A")
                 (A') (A') (A') (A') (A') (A') (A") (A') (A') (A')
                 (A") (A') (A') (A") (A') (A") (A') (A") (A') (A')
                 (A') (A") (A') (A') (A") (A') (A") (A') (A") (A')
                 (A') (A') (A') (A') (A')
 Beta  Orbitals:
       Occupied  (A') (A') (A') (A') (A') (A') (A') (A") (A') (A")
                 (A')
       Virtual   (A') (A') (A") (A') (A') (A") (A') (A') (A") (A')
                 (A") (A') (A') (A') (A') (A') (A') (A") (A') (A')
                 (A') (A") (A') (A') (A") (A') (A') (A") (A") (A')
                 (A') (A') (A") (A') (A') (A") (A') (A") (A') (A")
                 (A') (A') (A') (A') (A') (A')
 The electronic state is 2-A'.
 Alpha  occ. eigenvalues --  -19.63176 -19.63174 -10.64541  -1.18380  -1.10364
 Alpha  occ. eigenvalues --   -0.60397  -0.52613  -0.51146  -0.49785  -0.36590
 Alpha  occ. eigenvalues --   -0.35815  -0.21999
 Alpha virt. eigenvalues --    0.06276   0.06714   0.07728   0.09468   0.10982
 Alpha virt. eigenvalues --    0.21239   0.21577   0.23505   0.26270   0.28129
 Alpha virt. eigenvalues --    0.28735   0.29231   0.33101   0.45719   0.57404
 Alpha virt. eigenvalues --    0.70325   0.72377   0.86584   1.11311   1.21035
 Alpha virt. eigenvalues --    1.24775   1.29218   1.29980   1.32656   1.34529
 Alpha virt. eigenvalues --    1.51312   1.51685   1.55322   1.63453   1.63736
 Alpha virt. eigenvalues --    1.83723   1.86676   1.91624   1.93628   1.96022
 Alpha virt. eigenvalues --    2.27466   2.41712   2.74622   2.80466   2.88291
 Alpha virt. eigenvalues --    3.02187   3.14181   4.10420   4.17529   4.39586
  Beta  occ. eigenvalues --  -19.62709 -19.62707 -10.63839  -1.16518  -1.08374
  Beta  occ. eigenvalues --   -0.58202  -0.50384  -0.48523  -0.46683  -0.35446
  Beta  occ. eigenvalues --   -0.33699
  Beta virt. eigenvalues --   -0.02091   0.05338   0.05681   0.06185   0.08363
  Beta virt. eigenvalues --    0.12353   0.19292   0.19582   0.21973   0.25261
  Beta virt. eigenvalues --    0.27262   0.27851   0.29412   0.32934   0.46166
  Beta virt. eigenvalues --    0.59811   0.72588   0.73173   0.87452   1.11777
  Beta virt. eigenvalues --    1.21351   1.24632   1.30043   1.30855   1.32115
  Beta virt. eigenvalues --    1.35258   1.52706   1.52800   1.57280   1.62683
  Beta virt. eigenvalues --    1.65039   1.84352   1.87039   1.93240   1.94196
  Beta virt. eigenvalues --    1.97215   2.29720   2.42667   2.77275   2.82750
  Beta virt. eigenvalues --    2.89211   3.02642   3.15584   4.10523   4.17572
  Beta virt. eigenvalues --    4.45892
          Condensed to atoms (all electrons):
               1          2          3
     1  C    5.223403   0.237533   0.237549
     2  O    0.237533   8.538021  -0.124785
     3  O    0.237549  -0.124785   8.537980
          Atomic-Atomic Spin Densities.
               1          2          3
     1  C    1.205524  -0.227597  -0.227595
     2  O   -0.227597   0.317955   0.034476
     3  O   -0.227595   0.034476   0.317952
 Mulliken charges and spin densities:
               1          2
     1  C    0.301514   0.750333
     2  O   -0.650770   0.124834
     3  O   -0.650744   0.124833
 Sum of Mulliken charges =  -1.00000   1.00000
 Mulliken charges and spin densities with hydrogens summed into heavy atoms:
               1          2
     1  C    0.301514   0.750333
     2  O   -0.650770   0.124834
     3  O   -0.650744   0.124833
 APT charges:
               1
     1  C    1.396462
     2  O   -1.198237
     3  O   -1.198225
 Sum of APT charges =  -1.00000
 APT charges with hydrogens summed into heavy atoms:
               1
     1  C    1.396462
     2  O   -1.198237
     3  O   -1.198225
 Electronic spatial extent (au):  <R**2>=            126.8833
 Charge=             -1.0000 electrons
 Dipole moment (field-independent basis, Debye):
    X=             -0.0002    Y=              0.4128    Z=              0.0000  Tot=              0.4128
 Quadrupole moment (field-independent basis, Debye-Ang):
   XX=            -27.6034   YY=            -19.9886   ZZ=            -18.2026
   XY=              0.0001   XZ=              0.0000   YZ=              0.0000
 Traceless Quadrupole moment (field-independent basis, Debye-Ang):
   XX=             -5.6718   YY=              1.9429   ZZ=              3.7289
   XY=              0.0001   XZ=              0.0000   YZ=              0.0000
 Octapole moment (field-independent basis, Debye-Ang**2):
  XXX=             -0.0005  YYY=             -3.5521  ZZZ=              0.0000  XYY=             -0.0002
  XXY=              0.0174  XXZ=              0.0000  XZZ=             -0.0001  YZZ=             -0.7636
  YYZ=              0.0000  XYZ=              0.0000
 Hexadecapole moment (field-independent basis, Debye-Ang**3):
 XXXX=           -132.6808 YYYY=            -32.6265 ZZZZ=            -19.8377 XXXY=              0.0011
 XXXZ=              0.0000 YYYX=              0.0009 YYYZ=              0.0000 ZZZX=              0.0000
 ZZZY=              0.0000 XXYY=            -25.7165 XXZZ=            -23.9683 YYZZ=             -8.5496
 XXYZ=              0.0000 YYXZ=              0.0000 ZZXY=              0.0003
 N-N= 5.583485561734D+01 E-N=-5.618526727490D+02  KE= 1.870369749111D+02
 Symmetry A'   KE= 1.790771593056D+02
 Symmetry A"   KE= 7.959815605443D+00
 Symmetry A'   SP= 1.000000000000D+00
 Symmetry A"   SP=-4.863722475441D-16
  Exact polarizability:  44.699  -0.000  31.310  -0.000  -0.000  22.399
 Approx polarizability:  37.553  -0.000  21.683  -0.000  -0.000  17.705
                          Isotropic Fermi Contact Couplings
        Atom                 a.u.       MegaHertz       Gauss      10(-4) cm-1
     1  C(13)              0.40418     454.37874     162.13363     151.56443
     2  O(17)              0.14882     -90.21502     -32.19096     -30.09249
     3  O(17)              0.14882     -90.21457     -32.19080     -30.09234
 --------------------------------------------------------
       Center         ----  Spin Dipole Couplings  ----
                      3XX-RR        3YY-RR        3ZZ-RR
 --------------------------------------------------------
     1   Atom       -0.294955      0.539838     -0.244883
     2   Atom       -0.332345      0.794014     -0.461670
     3   Atom       -0.332339      0.794011     -0.461672
 --------------------------------------------------------
                        XY            XZ            YZ
 --------------------------------------------------------
     1   Atom        0.000020      0.000000      0.000000
     2   Atom       -0.209927      0.000000      0.000000
     3   Atom        0.209929      0.000000      0.000000
 --------------------------------------------------------


 ---------------------------------------------------------------------------------
              Anisotropic Spin Dipole Couplings in Principal Axis System
 ---------------------------------------------------------------------------------

       Atom             a.u.   MegaHertz   Gauss  10(-4) cm-1        Axes

              Baa    -0.2950   -39.580   -14.123   -13.203  1.0000 -0.0000 -0.0000
     1 C(13)  Bbb    -0.2449   -32.861   -11.726   -10.961  0.0000  0.0000  1.0000
              Bcc     0.5398    72.441    25.849    24.164  0.0000  1.0000  0.0000
 
              Baa    -0.4617    33.406    11.920    11.143  0.0000  0.0000  1.0000
     2 O(17)  Bbb    -0.3702    26.787     9.558     8.935  0.9841  0.1775  0.0000
              Bcc     0.8319   -60.193   -21.478   -20.078 -0.1775  0.9841  0.0000
 
              Baa    -0.4617    33.406    11.920    11.143  0.0000  0.0000  1.0000
     3 O(17)  Bbb    -0.3702    26.787     9.558     8.935  0.9841 -0.1775 -0.0000
              Bcc     0.8319   -60.193   -21.478   -20.078  0.1775  0.9841  0.0000
 

 ---------------------------------------------------------------------------------

 D2PCM: PCM CHGder 2nd derivatives, FixD1E=F FixD2E=F DoIter=F DoCFld=F I1PDM=0
 Calling FoFJK, ICntrl=    100127 FMM=F ISym2X=1 I1Cent= 0 IOpClX= 1 NMat=1 NMatS=1 NMatT=0.
 Full mass-weighted force constant matrix:
 Low frequencies ---    0.0012    0.0014    0.0016   34.1131   51.2621   72.7914
 Low frequencies ---  720.4616 1352.8889 1638.6771
 Diagonal vibrational polarizability:
       17.5256932       3.1728585       0.0000000
 Harmonic frequencies (cm**-1), IR intensities (KM/Mole), Raman scattering
 activities (A**4/AMU), depolarization ratios for plane and unpolarized
 incident light, reduced masses (AMU), force constants (mDyne/A),
 and normal coordinates:
                      1                      2                      3
                     A'                     A'                     A'
 Frequencies --    720.4616              1352.8889              1638.6760
 Red. masses --     14.2137                14.3224                12.9976
 Frc consts  --      4.3469                15.4451                20.5636
 IR Inten    --     43.9454                60.8366              1748.7520
  Atom  AN      X      Y      Z        X      Y      Z        X      Y      Z
     1   6     0.00   0.67   0.00    -0.00   0.65   0.00     0.87   0.00   0.00
     2   8    -0.46  -0.25   0.00     0.48  -0.24   0.00    -0.32   0.14   0.00
     3   8     0.46  -0.25   0.00    -0.48  -0.24   0.00    -0.33  -0.14   0.00

 -------------------
 - Thermochemistry -
 -------------------
 Temperature   298.150 Kelvin.  Pressure   1.00000 Atm.
 Atom     1 has atomic number  6 and mass  12.00000
 Atom     2 has atomic number  8 and mass  15.99491
 Atom     3 has atomic number  8 and mass  15.99491
 Molecular mass:    43.98983 amu.
 Principal axes and moments of inertia in atomic units:
                           1         2         3
     Eigenvalues --     7.39927 148.48612 155.88540
           X            1.00000   0.00002   0.00000
           Y           -0.00002   1.00000   0.00000
           Z           -0.00000   0.00000   1.00000
 This molecule is an asymmetric top.
 Rotational symmetry number  1.
 Rotational temperatures (Kelvin)     11.70573     0.58331     0.55563
 Rotational constants (GHZ):         243.90788    12.15428    11.57736
 Zero-point vibrational energy      22202.8 (Joules/Mol)
                                    5.30661 (Kcal/Mol)
 Vibrational temperatures:   1036.58  1946.51  2357.69
          (Kelvin)
 
 Zero-point correction=                           0.008457 (Hartree/Particle)
 Thermal correction to Energy=                    0.011406
 Thermal correction to Enthalpy=                  0.012350
 Thermal correction to Gibbs Free Energy=        -0.015557
 Sum of electronic and zero-point Energies=           -188.590509
 Sum of electronic and thermal Energies=              -188.587560
 Sum of electronic and thermal Enthalpies=            -188.586616
 Sum of electronic and thermal Free Energies=         -188.614523
 
                     E (Thermal)             CV                S
                      KCal/Mol        Cal/Mol-Kelvin    Cal/Mol-Kelvin
 Total                    7.157              6.922             58.735
 Electronic               0.000              0.000              1.377
 Translational            0.889              2.981             37.270
 Rotational               0.889              2.981             19.777
 Vibrational              5.380              0.960              0.311
                       Q            Log10(Q)             Ln(Q)
 Total Bot       0.143172D+08          7.155857         16.476970
 Total V=0       0.111078D+12         11.045628         25.433499
 Vib (Bot)       0.133247D-03         -3.875341         -8.923302
 Vib (V=0)       0.103378D+01          0.014430          0.033226
 Electronic      0.200000D+01          0.301030          0.693147
 Translational   0.114679D+08          7.059482         16.255059
 Rotational      0.468474D+04          3.670686          8.452066
 ***** Axes restored to original set *****
 -------------------------------------------------------------------
 Center     Atomic                   Forces (Hartrees/Bohr)
 Number     Number              X              Y              Z
 -------------------------------------------------------------------
      1        6           0.000014623    0.000081548    0.000000000
      2        8           0.000075953   -0.000037608   -0.000000000
      3        8          -0.000090576   -0.000043940    0.000000000
 -------------------------------------------------------------------
 Cartesian Forces:  Max     0.000090576 RMS     0.000051835
 FormGI is forming the generalized inverse of G from B-inverse, IUseBI=4.

 GradGradGradGradGradGradGradGradGradGradGradGradGradGradGradGradGradGrad
 Berny optimization.
 Internal  Forces:  Max     0.000100544 RMS     0.000076151
 Search for a local minimum.
 Step number   1 out of a maximum of    2
 All quantities printed in internal units (Hartrees-Bohrs-Radians)
 Second derivative matrix not updated -- analytic derivatives used.
 The second derivative matrix:
                          R1        R2        A1
           R1           0.64575
           R2           0.14635   0.64584
           A1           0.05875   0.05875   0.33785
 ITU=  0
     Eigenvalues ---    0.32313   0.49945   0.80686
 Angle between quadratic step and forces=  18.72 degrees.
 Linear search not attempted -- first point.
 Iteration  1 RMS(Cart)=  0.00008851 RMS(Int)=  0.00000000
 Iteration  2 RMS(Cart)=  0.00000000 RMS(Int)=  0.00000000
 ClnCor:  largest displacement from symmetrization is 4.44D-16 for atom     3.
 Variable       Old X    -DE/DX   Delta X   Delta X   Delta X     New X
                                 (Linear)    (Quad)   (Total)
    R1        2.34300   0.00008   0.00000   0.00011   0.00011   2.34311
    R2        2.34297   0.00010   0.00000   0.00014   0.00014   2.34311
    A1        2.33378  -0.00001   0.00000  -0.00008  -0.00008   2.33371
         Item               Value     Threshold  Converged?
 Maximum Force            0.000101     0.000450     YES
 RMS     Force            0.000076     0.000300     YES
 Maximum Displacement     0.000086     0.001800     YES
 RMS     Displacement     0.000089     0.001200     YES
 Predicted change in Energy=-1.189145D-08
 Optimization completed.
    -- Stationary point found.
                           ----------------------------
                           !   Optimized Parameters   !
                           ! (Angstroms and Degrees)  !
 --------------------------                            --------------------------
 ! Name  Definition              Value          Derivative Info.                !
 --------------------------------------------------------------------------------
 ! R1    R(1,2)                  1.2399         -DE/DX =    0.0001              !
 ! R2    R(1,3)                  1.2398         -DE/DX =    0.0001              !
 ! A1    A(2,1,3)              133.716          -DE/DX =    0.0                 !
 --------------------------------------------------------------------------------
 GradGradGradGradGradGradGradGradGradGradGradGradGradGradGradGradGradGrad


 ----------------------------------------------------------------------

 Electric dipole moment (input orientation):
 (Debye = 10**-18 statcoulomb cm , SI units = C m)
                  (au)            (Debye)         (10**-30 SI)
   Tot        0.162415D+00      0.412817D+00      0.137701D+01
   x         -0.526168D-04     -0.133739D-03     -0.446104D-03
   y          0.162415D+00      0.412817D+00      0.137701D+01
   z          0.000000D+00      0.000000D+00      0.000000D+00

 Dipole polarizability, Alpha (input orientation).
 (esu units = cm**3 , SI units = C**2 m**2 J**-1)
 Alpha(0;0):
               (au)            (10**-24 esu)      (10**-40 SI)
   iso        0.328026D+02      0.486085D+01      0.540843D+01
   aniso      0.194416D+02      0.288095D+01      0.320549D+01
   xx         0.446988D+02      0.662367D+01      0.736983D+01
   yx        -0.138662D-02     -0.205475D-03     -0.228622D-03
   yy         0.313104D+02      0.463972D+01      0.516238D+01
   zx         0.000000D+00      0.000000D+00      0.000000D+00
   zy         0.000000D+00      0.000000D+00      0.000000D+00
   zz         0.223988D+02      0.331916D+01      0.369306D+01

 ----------------------------------------------------------------------

 Dipole orientation:
     6          0.00026090          0.00000008          0.66658666
     8          2.15434760          0.00069794         -0.25512834
     8         -2.15455727         -0.00069800         -0.25333549

 Electric dipole moment (dipole orientation):
 (Debye = 10**-18 statcoulomb cm , SI units = C m)
                  (au)            (Debye)         (10**-30 SI)
   Tot        0.162415D+00      0.412817D+00      0.137701D+01
   x          0.000000D+00      0.000000D+00      0.000000D+00
   y          0.000000D+00      0.000000D+00      0.000000D+00
   z          0.162415D+00      0.412817D+00      0.137701D+01

 Dipole polarizability, Alpha (dipole orientation).
 (esu units = cm**3 , SI units = C**2 m**2 J**-1)
 Alpha(0;0):
               (au)            (10**-24 esu)      (10**-40 SI)
   iso        0.328026D+02      0.486085D+01      0.540843D+01
   aniso      0.194416D+02      0.288095D+01      0.320549D+01
   xx         0.446988D+02      0.662367D+01      0.736983D+01
   yx         0.722444D-02      0.107055D-02      0.119115D-02
   yy         0.223988D+02      0.331916D+01      0.369306D+01
   zx        -0.572400D-02     -0.848209D-03     -0.943760D-03
   zy         0.000000D+00      0.000000D+00      0.000000D+00
   zz         0.313104D+02      0.463972D+01      0.516239D+01

 ----------------------------------------------------------------------
 1\1\GINC-NODE2\Freq\UM062X\6-31+G(d,p)\C1O2(1-,2)\GONGKE2021\01-Jul-20
 23\0\\#N Geom=AllCheck Guess=TCheck SCRF=Check GenChk UM062X/6-31+G(d,
 p) Freq\\"Sketch 2"\\-1,2\C,0.0000237864,0.352742497,0.\O,1.1400753916
 ,-0.1346387661,0.\O,-1.140099178,-0.1344287309,0.\\Version=ES64L-G16Re
 vA.03\State=2-A'\HF=-188.5989657\S2=0.75434\S2-1=0.\S2A=0.750014\RMSD=
 4.560e-10\RMSF=5.184e-05\ZeroPoint=0.0084566\Thermal=0.0114056\Dipole=
 -0.0000526,0.1624145,0.\DipoleDeriv=3.595903,-0.0002565,0.,-0.000249,0
 .69098,0.,0.,0.,-0.097497,-2.2978629,0.0913943,0.,0.794208,-0.8455814,
 0.,0.,0.,-0.4512667,-2.2980401,-0.0911379,0.,-0.7939591,-0.8453986,0.,
 0.,0.,-0.4512363\Polar=44.698759,-0.0013866,31.3103825,0.,0.,22.398791
 6\Quadrupole=-4.2168722,1.4445132,2.7723589,0.0005235,0.,0.\PG=CS [SG(
 C1O2)]\NImag=0\\0.84517431,-0.00000954,0.38029221,0.,0.,0.00174981,-0.
 42251885,0.20714800,0.,0.57374694,0.17944343,-0.19017754,0.,-0.1933146
 4,0.13403551,0.,0.,-0.00087843,0.,0.,0.00079318,-0.42265546,-0.2071384
 6,0.,-0.15122809,0.01387121,0.,0.57388354,-0.17943390,-0.19011468,0.,-
 0.01383336,0.05614202,0.,0.19326725,0.13397265,0.,0.,-0.00087138,0.,0.
 ,0.00008525,0.,0.,0.00078613\\-0.00001462,-0.00008155,0.,-0.00007595,0
 .00003761,0.,0.00009058,0.00004394,0.\\\@


 MODELS ARE TO BE USED, NOT BELIEVED.

    -- PARAPHRASED BY H. THIEL IN "PRINCIPLES OF ECONOMETRICS"
 Job cpu time:       0 days  0 hours  2 minutes 48.4 seconds.
 Elapsed time:       0 days  0 hours  0 minutes  9.1 seconds.
 File lengths (MBytes):  RWF=     10 Int=      0 D2E=      0 Chk=      3 Scr=      1
 Normal termination of Gaussian 16 at Sat Jul  1 04:38:28 2023.
