 Entering Gaussian System, Link 0=/home/gau/soft/g16/g16
 Initial command:
 /home/gau/soft/g16/l1.exe "/home/gau/soft/scratch/Gau-152139.inp" -scrdir="/home/gau/soft/scratch/"
 Entering Link 1 = /home/gau/soft/g16/l1.exe PID=    152140.
  
 Copyright (c) 1988-2019, Gaussian, Inc.  All Rights Reserved.
  
 This is part of the Gaussian(R) 16 program.  It is based on
 the Gaussian(R) 09 system (copyright 2009, Gaussian, Inc.),
 the Gaussian(R) 03 system (copyright 2003, Gaussian, Inc.),
 the Gaussian(R) 98 system (copyright 1998, Gaussian, Inc.),
 the Gaussian(R) 94 system (copyright 1995, Gaussian, Inc.),
 the Gaussian 92(TM) system (copyright 1992, Gaussian, Inc.),
 the Gaussian 90(TM) system (copyright 1990, Gaussian, Inc.),
 the Gaussian 88(TM) system (copyright 1988, Gaussian, Inc.),
 the Gaussian 86(TM) system (copyright 1986, Carnegie Mellon
 University), and the Gaussian 82(TM) system (copyright 1983,
 Carnegie Mellon University). Gaussian is a federally registered
 trademark of Gaussian, Inc.
  
 This software contains proprietary and confidential information,
 including trade secrets, belonging to Gaussian, Inc.
  
 This software is provided under written license and may be
 used, copied, transmitted, or stored only in accord with that
 written license.
  
 The following legend is applicable only to US Government
 contracts under FAR:
  
                    RESTRICTED RIGHTS LEGEND
  
 Use, reproduction and disclosure by the US Government is
 subject to restrictions as set forth in subparagraphs (a)
 and (c) of the Commercial Computer Software - Restricted
 Rights clause in FAR 52.227-19.
  
 Gaussian, Inc.
 340 Quinnipiac St., Bldg. 40, Wallingford CT 06492
  
  
 ---------------------------------------------------------------
 Warning -- This program may not be used in any manner that
 competes with the business of Gaussian, Inc. or will provide
 assistance to any competitor of Gaussian, Inc.  The licensee
 of this program is prohibited from giving any competitor of
 Gaussian, Inc. access to this program.  By using this program,
 the user acknowledges that Gaussian, Inc. is engaged in the
 business of creating and licensing software in the field of
 computational chemistry and represents and warrants to the
 licensee that it is not a competitor of Gaussian, Inc. and that
 it will not use this program in any manner prohibited above.
 ---------------------------------------------------------------
  

 Cite this work as:
 Gaussian 16, Revision C.01,
 M. J. Frisch, G. W. Trucks, H. B. Schlegel, G. E. Scuseria, 
 M. A. Robb, J. R. Cheeseman, G. Scalmani, V. Barone, 
 G. A. Petersson, H. Nakatsuji, X. Li, M. Caricato, A. V. Marenich, 
 J. Bloino, B. G. Janesko, R. Gomperts, B. Mennucci, H. P. Hratchian, 
 J. V. Ortiz, A. F. Izmaylov, J. L. Sonnenberg, D. Williams-Young, 
 F. Ding, F. Lipparini, F. Egidi, J. Goings, B. Peng, A. Petrone, 
 T. Henderson, D. Ranasinghe, V. G. Zakrzewski, J. Gao, N. Rega, 
 G. Zheng, W. Liang, M. Hada, M. Ehara, K. Toyota, R. Fukuda, 
 J. Hasegawa, M. Ishida, T. Nakajima, Y. Honda, O. Kitao, H. Nakai, 
 T. Vreven, K. Throssell, J. A. Montgomery, Jr., J. E. Peralta, 
 F. Ogliaro, M. J. Bearpark, J. J. Heyd, E. N. Brothers, K. N. Kudin, 
 V. N. Staroverov, T. A. Keith, R. Kobayashi, J. Normand, 
 K. Raghavachari, A. P. Rendell, J. C. Burant, S. S. Iyengar, 
 J. Tomasi, M. Cossi, J. M. Millam, M. Klene, C. Adamo, R. Cammi, 
 J. W. Ochterski, R. L. Martin, K. Morokuma, O. Farkas, 
 J. B. Foresman, and D. J. Fox, Gaussian, Inc., Wallingford CT, 2019.
 
 ******************************************
 Gaussian 16:  ES64L-G16RevC.01  3-Jul-2019
                 2-Dec-2023 
 ******************************************
 %mem=10GB
 %nprocshared=48
 Will use up to   48 processors via shared memory.
 -----------------------------------------------------
 # opt freq 6-31+g(d,p) scrf=(smd,solvent=water) m062x
 -----------------------------------------------------
 1/18=20,19=15,26=3,38=1/1,3;
 2/9=110,12=2,17=6,18=5,40=1/2;
 3/5=1,6=6,7=111,11=2,25=1,30=1,70=32201,71=1,72=1,74=-55/1,2,3;
 4//1;
 5/5=2,38=5,53=1/2;
 6/7=2,8=2,9=2,10=2,28=1/1;
 7//1,2,3,16;
 1/18=20,19=15,26=3/3(2);
 2/9=110/2;
 99//99;
 2/9=110/2;
 3/5=1,6=6,7=111,11=2,25=1,30=1,70=32205,71=1,72=1,74=-55/1,2,3;
 4/5=5,16=3,69=1/1;
 5/5=2,38=5,53=1/2;
 7//1,2,3,16;
 1/18=20,19=15,26=3/3(-5);
 2/9=110/2;
 6/7=2,8=2,9=2,10=2,19=2,28=1/1;
 99/9=1/99;
 -------------------
 Title Card Required
 -------------------
 Symbolic Z-matrix:
 Charge =  1 Multiplicity = 1
 C                     1.37095   2.19047   0.2349 
 C                     1.87783  -0.22037  -0.1087 
 O                     2.33312   0.99295  -0.42999 
 O                     2.63685  -1.2262    0.19866 
 H                     1.53515   2.87757  -0.59629 
 H                     1.61781   2.67705   1.17741 
 H                     0.33246   1.86308   0.24673 
 

 GradGradGradGradGradGradGradGradGradGradGradGradGradGradGradGradGradGrad
 Berny optimization.
 Initialization pass.
                           ----------------------------
                           !    Initial Parameters    !
                           ! (Angstroms and Degrees)  !
 --------------------------                            --------------------------
 ! Name  Definition              Value          Derivative Info.                !
 --------------------------------------------------------------------------------
 ! R1    R(1,3)                  1.6739         estimate D2E/DX2                !
 ! R2    R(1,5)                  1.0909         estimate D2E/DX2                !
 ! R3    R(1,6)                  1.0891         estimate D2E/DX2                !
 ! R4    R(1,7)                  1.0889         estimate D2E/DX2                !
 ! R5    R(2,3)                  1.3352         estimate D2E/DX2                !
 ! R6    R(2,4)                  1.297          estimate D2E/DX2                !
 ! A1    A(3,1,5)               93.522          estimate D2E/DX2                !
 ! A2    A(3,1,6)              122.216          estimate D2E/DX2                !
 ! A3    A(3,1,7)              109.7193         estimate D2E/DX2                !
 ! A4    A(5,1,6)              110.1142         estimate D2E/DX2                !
 ! A5    A(5,1,7)              109.9499         estimate D2E/DX2                !
 ! A6    A(6,1,7)              109.944          estimate D2E/DX2                !
 ! A7    A(3,2,4)              124.2071         estimate D2E/DX2                !
 ! A8    A(1,3,2)              111.0098         estimate D2E/DX2                !
 ! D1    D(5,1,3,2)           -147.4108         estimate D2E/DX2                !
 ! D2    D(6,1,3,2)             96.1003         estimate D2E/DX2                !
 ! D3    D(7,1,3,2)            -34.7546         estimate D2E/DX2                !
 ! D4    D(4,2,3,1)           -140.4731         estimate D2E/DX2                !
 --------------------------------------------------------------------------------
 Trust Radius=3.00D-01 FncErr=1.00D-07 GrdErr=1.00D-06 EigMax=2.50D+02 EigMin=1.00D-04
 Number of steps in this run=     28 maximum allowed number of steps=    100.
 GradGradGradGradGradGradGradGradGradGradGradGradGradGradGradGradGradGrad

                          Input orientation:                          
 ---------------------------------------------------------------------
 Center     Atomic      Atomic             Coordinates (Angstroms)
 Number     Number       Type             X           Y           Z
 ---------------------------------------------------------------------
      1          6           0        1.370951    2.190468    0.234903
      2          6           0        1.877825   -0.220368   -0.108702
      3          8           0        2.333121    0.992948   -0.429987
      4          8           0        2.636847   -1.226198    0.198656
      5          1           0        1.535152    2.877569   -0.596295
      6          1           0        1.617813    2.677054    1.177413
      7          1           0        0.332462    1.863085    0.246732
 ---------------------------------------------------------------------
                    Distance matrix (angstroms):
                    1          2          3          4          5
     1  C    0.000000
     2  C    2.487391   0.000000
     3  O    1.673889   1.335160   0.000000
     4  O    3.643819   1.297026   2.326381   0.000000
     5  H    1.090852   3.154740   2.053341   4.322798   0.000000
     6  H    1.089051   3.180684   2.435490   4.151117   1.786918
     7  H    1.088935   2.618255   2.284234   3.854371   1.785031
                    6          7
     6  H    0.000000
     7  H    1.783491   0.000000
 Stoichiometry    C2H3O2(1+)
 Framework group  C1[X(C2H3O2)]
 Deg. of freedom    15
 Full point group                 C1      NOp   1
 Largest Abelian subgroup         C1      NOp   1
 Largest concise Abelian subgroup C1      NOp   1
                         Standard orientation:                         
 ---------------------------------------------------------------------
 Center     Atomic      Atomic             Coordinates (Angstroms)
 Number     Number       Type             X           Y           Z
 ---------------------------------------------------------------------
      1          6           0       -1.753554   -0.246893    0.081948
      2          6           0        0.698090   -0.202023   -0.335837
      3          8           0       -0.313102    0.601946    0.001474
      4          8           0        1.887223   -0.132674    0.177419
      5          1           0       -2.350950    0.603223   -0.250287
      6          1           0       -2.146106   -0.636714    1.020017
      7          1           0       -1.763127   -1.027193   -0.677538
 ---------------------------------------------------------------------
 Rotational constants (GHZ):          40.1227082           4.3004319           4.1054979
 Standard basis: 6-31+G(d,p) (6D, 7F)
 There are    91 symmetry adapted cartesian basis functions of A   symmetry.
 There are    91 symmetry adapted basis functions of A   symmetry.
    91 basis functions,   149 primitive gaussians,    91 cartesian basis functions
    15 alpha electrons       15 beta electrons
       nuclear repulsion energy       104.5692889604 Hartrees.
 NAtoms=    7 NActive=    7 NUniq=    7 SFac= 1.00D+00 NAtFMM=   60 NAOKFM=F Big=F
 Integral buffers will be    131072 words long.
 Raffenetti 2 integral format.
 Two-electron integral symmetry is turned on.
 ------------------------------------------------------------------------------
 Polarizable Continuum Model (PCM)
 =================================
 Model                : PCM.
 Atomic radii         : SMD-Coulomb.
 Polarization charges : Total charges.
 Charge compensation  : None.
 Solution method      : On-the-fly selection.
 Cavity type          : VdW (van der Waals Surface) (Alpha=1.000).
 Cavity algorithm     : GePol (No added spheres)
                        Default sphere list used, NSphG=    7.
                        Lebedev-Laikov grids with approx.  5.0 points / Ang**2.
                        Smoothing algorithm: York/Karplus (Gamma=1.0000).
                        Polarization charges: spherical gaussians, with
                                              point-specific exponents (IZeta= 3).
                        Self-potential: point-specific (ISelfS= 7).
                        Self-field    : sphere-specific E.n sum rule (ISelfD= 2).
 1st derivatives      : Analytical E(r).r(x)/FMM algorithm (CHGder, D1EAlg=3).
                        Cavity 1st derivative terms included.
 Solvent              : Water, Eps=  78.355300 Eps(inf)=   1.777849
 ------------------------------------------------------------------------------
 Spheres list:
 ISph  on   Nord     Re0    Alpha      Xe            Ye            Ze
    1   C      1    1.8500  1.000     -1.753554     -0.246893      0.081948
    2   C      2    1.8500  1.000      0.698090     -0.202023     -0.335837
    3   O      3    1.5200  1.000     -0.313102      0.601946      0.001474
    4   O      4    1.5200  1.000      1.887223     -0.132674      0.177419
    5   H      5    1.2000  1.000     -2.350950      0.603223     -0.250287
    6   H      6    1.2000  1.000     -2.146106     -0.636714      1.020017
    7   H      7    1.2000  1.000     -1.763127     -1.027193     -0.677538
 ------------------------------------------------------------------------------
 ------------------------------------------------------------------------------
 Atomic radii for non-electrostatic terms: SMD-CDS.
 ------------------------------------------------------------------------------
 Nuclear repulsion after PCM non-electrostatic terms =      104.5788091606 Hartrees.
 One-electron integrals computed using PRISM.
 NBasis=    91 RedAO= T EigKep=  1.89D-03  NBF=    91
 NBsUse=    91 1.00D-06 EigRej= -1.00D+00 NBFU=    91
 ExpMin= 4.38D-02 ExpMax= 5.48D+03 ExpMxC= 8.25D+02 IAcc=3 IRadAn=         5 AccDes= 0.00D+00
 Harris functional with IExCor= 1009 and IRadAn=       5 diagonalized for initial guess.
 HarFok:  IExCor= 1009 AccDes= 0.00D+00 IRadAn=         5 IDoV= 1 UseB2=F ITyADJ=14
 ICtDFT=  3500011 ScaDFX=  1.000000  1.000000  1.000000  1.000000
 FoFCou: FMM=F IPFlag=           0 FMFlag=      100000 FMFlg1=           0
         NFxFlg=           0 DoJE=T BraDBF=F KetDBF=T FulRan=T
         wScrn=  0.000000 ICntrl=       500 IOpCl=  0 I1Cent=   200000004 NGrid=           0
         NMat0=    1 NMatS0=      1 NMatT0=    0 NMatD0=    1 NMtDS0=    0 NMtDT0=    0
 Petite list used in FoFCou.
 Keep R1 ints in memory in canonical form, NReq=52682743.
 Requested convergence on RMS density matrix=1.00D-08 within 128 cycles.
 Requested convergence on MAX density matrix=1.00D-06.
 Requested convergence on             energy=1.00D-06.
 No special actions if energy rises.
 Inv3:  Mode=1 IEnd=     1354752.
 Iteration    1 A*A^-1 deviation from unit magnitude is 2.44D-15 for    112.
 Iteration    1 A*A^-1 deviation from orthogonality  is 1.53D-15 for    565    124.
 Iteration    1 A^-1*A deviation from unit magnitude is 2.22D-15 for    251.
 Iteration    1 A^-1*A deviation from orthogonality  is 1.38D-12 for    551    484.
 Error on total polarization charges =  0.02155
 SCF Done:  E(RM062X) =  -228.001232020     A.U. after   15 cycles
            NFock= 15  Conv=0.34D-08     -V/T= 2.0126
 SMD-CDS (non-electrostatic) energy       (kcal/mol) =       5.97
 (included in total energy above)

 **********************************************************************

            Population analysis using the SCF Density.

 **********************************************************************

 Orbital symmetries:
       Occupied  (A) (A) (A) (A) (A) (A) (A) (A) (A) (A) (A) (A)
                 (A) (A) (A)
       Virtual   (A) (A) (A) (A) (A) (A) (A) (A) (A) (A) (A) (A)
                 (A) (A) (A) (A) (A) (A) (A) (A) (A) (A) (A) (A)
                 (A) (A) (A) (A) (A) (A) (A) (A) (A) (A) (A) (A)
                 (A) (A) (A) (A) (A) (A) (A) (A) (A) (A) (A) (A)
                 (A) (A) (A) (A) (A) (A) (A) (A) (A) (A) (A) (A)
                 (A) (A) (A) (A) (A) (A) (A) (A) (A) (A) (A) (A)
                 (A) (A) (A) (A)
 The electronic state is 1-A.
 Alpha  occ. eigenvalues --  -19.84030 -19.83169 -10.87525 -10.65930  -1.31491
 Alpha  occ. eigenvalues --   -1.23698  -0.85853  -0.74264  -0.65356  -0.62592
 Alpha  occ. eigenvalues --   -0.62151  -0.53126  -0.51491  -0.50778  -0.46750
 Alpha virt. eigenvalues --   -0.20676  -0.08487  -0.00685   0.03176   0.04668
 Alpha virt. eigenvalues --    0.05501   0.05765   0.08717   0.09292   0.10312
 Alpha virt. eigenvalues --    0.14553   0.19000   0.19562   0.21372   0.22936
 Alpha virt. eigenvalues --    0.24229   0.25582   0.26479   0.27639   0.29872
 Alpha virt. eigenvalues --    0.30125   0.32986   0.35142   0.38281   0.61414
 Alpha virt. eigenvalues --    0.62773   0.66290   0.69647   0.70678   0.71718
 Alpha virt. eigenvalues --    0.94655   0.97372   1.04616   1.08342   1.11889
 Alpha virt. eigenvalues --    1.16349   1.17104   1.19855   1.22954   1.23477
 Alpha virt. eigenvalues --    1.28870   1.35941   1.39896   1.46473   1.48087
 Alpha virt. eigenvalues --    1.51858   1.56078   1.68512   1.69080   1.74071
 Alpha virt. eigenvalues --    1.78479   1.79443   1.88454   2.04055   2.05132
 Alpha virt. eigenvalues --    2.10817   2.13343   2.19757   2.31925   2.34925
 Alpha virt. eigenvalues --    2.43158   2.53359   2.55856   2.62114   2.63491
 Alpha virt. eigenvalues --    2.80384   2.83682   2.85361   2.94010   3.20836
 Alpha virt. eigenvalues --    3.38989   3.40152   4.00480   4.07804   4.21301
 Alpha virt. eigenvalues --    4.41053
          Condensed to atoms (all electrons):
               1          2          3          4          5          6
     1  C    5.103731  -0.043266   0.083809   0.002782   0.393792   0.371553
     2  C   -0.043266   4.481876   0.301290   0.476742   0.002141   0.000859
     3  O    0.083809   0.301290   7.921817  -0.065940  -0.036148  -0.008539
     4  O    0.002782   0.476742  -0.065940   7.693551  -0.000573   0.000169
     5  H    0.393792   0.002141  -0.036148  -0.000573   0.430793  -0.021825
     6  H    0.371553   0.000859  -0.008539   0.000169  -0.021825   0.400657
     7  H    0.383225  -0.003922  -0.020167   0.001080  -0.019188  -0.021508
               7
     1  C    0.383225
     2  C   -0.003922
     3  O   -0.020167
     4  O    0.001080
     5  H   -0.019188
     6  H   -0.021508
     7  H    0.414840
 Mulliken charges:
               1
     1  C   -0.295624
     2  C    0.784280
     3  O   -0.176122
     4  O   -0.107811
     5  H    0.251006
     6  H    0.278634
     7  H    0.265638
 Sum of Mulliken charges =   1.00000
 Mulliken charges with hydrogens summed into heavy atoms:
               1
     1  C    0.499654
     2  C    0.784280
     3  O   -0.176122
     4  O   -0.107811
 Electronic spatial extent (au):  <R**2>=            294.2315
 Charge=              1.0000 electrons
 Dipole moment (field-independent basis, Debye):
    X=             -3.6101    Y=             -1.9025    Z=             -1.1584  Tot=              4.2420
 Quadrupole moment (field-independent basis, Debye-Ang):
   XX=            -11.4974   YY=            -19.6069   ZZ=            -19.3077
   XY=              1.7995   XZ=             -1.5144   YZ=              0.5083
 Traceless Quadrupole moment (field-independent basis, Debye-Ang):
   XX=              5.3066   YY=             -2.8029   ZZ=             -2.5037
   XY=              1.7995   XZ=             -1.5144   YZ=              0.5083
 Octapole moment (field-independent basis, Debye-Ang**2):
  XXX=            -21.0852  YYY=              0.2407  ZZZ=              0.4705  XYY=             -1.6036
  XXY=             -1.6422  XXZ=              1.9705  XZZ=             -0.2899  YZZ=             -1.0335
  YYZ=             -0.5256  XYZ=              0.9475
 Hexadecapole moment (field-independent basis, Debye-Ang**3):
 XXXX=           -240.4622 YYYY=            -37.1610 ZZZZ=            -25.1285 XXXY=              7.7360
 XXXZ=             -1.9284 YYYX=              0.7547 YYYZ=              1.1207 ZZZX=             -1.6183
 ZZZY=             -0.1068 XXYY=            -46.6371 XXZZ=            -45.6384 YYZZ=             -9.6870
 XXYZ=             -1.7513 YYXZ=              0.9610 ZZXY=              2.4604
 N-N= 1.045788091606D+02 E-N=-7.338557272772D+02  KE= 2.251675831923D+02
 D1PCM: PCM CHGder 1st derivatives, ID1Alg=3 FixD1E=F DoIter=F DoCFld=F I1PDM=0.
 Calling FoFJK, ICntrl=      2127 FMM=F ISym2X=0 I1Cent= 0 IOpClX= 0 NMat=1 NMatS=1 NMatT=0.
 ***** Axes restored to original set *****
 -------------------------------------------------------------------
 Center     Atomic                   Forces (Hartrees/Bohr)
 Number     Number              X              Y              Z
 -------------------------------------------------------------------
      1        6          -0.007489333    0.019893514   -0.043454165
      2        6           0.247273412   -0.055285684    0.026325243
      3        8          -0.106316022   -0.051566492    0.055331313
      4        8          -0.159487074    0.121897252   -0.043968579
      5        1          -0.002768126    0.000323209    0.004414754
      6        1           0.023841906   -0.022135288    0.005009355
      7        1           0.004945237   -0.013126511   -0.003657920
 -------------------------------------------------------------------
 Cartesian Forces:  Max     0.247273412 RMS     0.078013042

 GradGradGradGradGradGradGradGradGradGradGradGradGradGradGradGradGradGrad
 Berny optimization.
 FormGI is forming the generalized inverse of G from B-inverse, IUseBI=4.
 Internal  Forces:  Max     0.198325488 RMS     0.062994309
 Search for a local minimum.
 Step number   1 out of a maximum of   28
 All quantities printed in internal units (Hartrees-Bohrs-Radians)
 Mixed Optimization -- RFO/linear search
 Second derivative matrix not updated -- first step.
 The second derivative matrix:
                          R1        R2        R3        R4        R5
           R1           0.19319
           R2           0.00000   0.34714
           R3           0.00000   0.00000   0.34923
           R4           0.00000   0.00000   0.00000   0.34936
           R5           0.00000   0.00000   0.00000   0.00000   0.58303
           R6           0.00000   0.00000   0.00000   0.00000   0.00000
           A1           0.00000   0.00000   0.00000   0.00000   0.00000
           A2           0.00000   0.00000   0.00000   0.00000   0.00000
           A3           0.00000   0.00000   0.00000   0.00000   0.00000
           A4           0.00000   0.00000   0.00000   0.00000   0.00000
           A5           0.00000   0.00000   0.00000   0.00000   0.00000
           A6           0.00000   0.00000   0.00000   0.00000   0.00000
           A7           0.00000   0.00000   0.00000   0.00000   0.00000
           A8           0.00000   0.00000   0.00000   0.00000   0.00000
           D1           0.00000   0.00000   0.00000   0.00000   0.00000
           D2           0.00000   0.00000   0.00000   0.00000   0.00000
           D3           0.00000   0.00000   0.00000   0.00000   0.00000
           D4           0.00000   0.00000   0.00000   0.00000   0.00000
                          R6        A1        A2        A3        A4
           R6           0.68026
           A1           0.00000   0.16000
           A2           0.00000   0.00000   0.16000
           A3           0.00000   0.00000   0.00000   0.16000
           A4           0.00000   0.00000   0.00000   0.00000   0.16000
           A5           0.00000   0.00000   0.00000   0.00000   0.00000
           A6           0.00000   0.00000   0.00000   0.00000   0.00000
           A7           0.00000   0.00000   0.00000   0.00000   0.00000
           A8           0.00000   0.00000   0.00000   0.00000   0.00000
           D1           0.00000   0.00000   0.00000   0.00000   0.00000
           D2           0.00000   0.00000   0.00000   0.00000   0.00000
           D3           0.00000   0.00000   0.00000   0.00000   0.00000
           D4           0.00000   0.00000   0.00000   0.00000   0.00000
                          A5        A6        A7        A8        D1
           A5           0.16000
           A6           0.00000   0.16000
           A7           0.00000   0.00000   0.25000
           A8           0.00000   0.00000   0.00000   0.25000
           D1           0.00000   0.00000   0.00000   0.00000   0.00230
           D2           0.00000   0.00000   0.00000   0.00000   0.00000
           D3           0.00000   0.00000   0.00000   0.00000   0.00000
           D4           0.00000   0.00000   0.00000   0.00000   0.00000
                          D2        D3        D4
           D2           0.00230
           D3           0.00000   0.00230
           D4           0.00000   0.00000   0.02549
 ITU=  0
     Eigenvalues ---    0.00230   0.02549   0.08168   0.11004   0.16000
     Eigenvalues ---    0.16000   0.16000   0.19319   0.25000   0.25000
     Eigenvalues ---    0.34714   0.34923   0.34936   0.58303   0.68026
 RFO step:  Lambda=-1.27571590D-01 EMin= 2.30000000D-03
 Linear search not attempted -- first point.
 Maximum step size (   0.300) exceeded in Quadratic search.
    -- Step size scaled by   0.585
 Iteration  1 RMS(Cart)=  0.08753640 RMS(Int)=  0.00731286
 Iteration  2 RMS(Cart)=  0.00827272 RMS(Int)=  0.00122223
 Iteration  3 RMS(Cart)=  0.00001693 RMS(Int)=  0.00122215
 Iteration  4 RMS(Cart)=  0.00000000 RMS(Int)=  0.00122215
 Variable       Old X    -DE/DX   Delta X   Delta X   Delta X     New X
                                 (Linear)    (Quad)   (Total)
    R1        3.16319  -0.03640   0.00000  -0.06642  -0.06642   3.09678
    R2        2.06141  -0.00358   0.00000  -0.00442  -0.00442   2.05699
    R3        2.05801  -0.00011   0.00000  -0.00014  -0.00014   2.05787
    R4        2.05779  -0.00085   0.00000  -0.00104  -0.00104   2.05674
    R5        2.52309  -0.09465   0.00000  -0.07796  -0.07796   2.44513
    R6        2.45102  -0.19833   0.00000  -0.14370  -0.14370   2.30733
    A1        1.63227   0.01862   0.00000   0.04381   0.04408   1.67635
    A2        2.13307  -0.04814   0.00000  -0.10099  -0.10247   2.03060
    A3        1.91496  -0.01075   0.00000  -0.02590  -0.02781   1.88715
    A4        1.92186   0.01278   0.00000   0.03172   0.03237   1.95422
    A5        1.91899   0.00842   0.00000   0.02373   0.02356   1.94255
    A6        1.91889   0.02288   0.00000   0.03928   0.03633   1.95522
    A7        2.16782   0.13211   0.00000   0.20480   0.20480   2.37263
    A8        1.93749   0.01998   0.00000   0.03097   0.03097   1.96846
    D1       -2.57280  -0.00260   0.00000  -0.00839  -0.00909  -2.58190
    D2        1.67727  -0.01372   0.00000  -0.04133  -0.03863   1.63864
    D3       -0.60658   0.01191   0.00000   0.02987   0.02787  -0.57871
    D4       -2.45172  -0.00853   0.00000  -0.03263  -0.03263  -2.48435
         Item               Value     Threshold  Converged?
 Maximum Force            0.198325     0.000450     NO 
 RMS     Force            0.062994     0.000300     NO 
 Maximum Displacement     0.213326     0.001800     NO 
 RMS     Displacement     0.089577     0.001200     NO 
 Predicted change in Energy=-5.875245D-02
 GradGradGradGradGradGradGradGradGradGradGradGradGradGradGradGradGradGrad

                          Input orientation:                          
 ---------------------------------------------------------------------
 Center     Atomic      Atomic             Coordinates (Angstroms)
 Number     Number       Type             X           Y           Z
 ---------------------------------------------------------------------
      1          6           0        1.364089    2.190069    0.211223
      2          6           0        1.967506   -0.165204   -0.089701
      3          8           0        2.344372    1.031322   -0.406703
      4          8           0        2.523960   -1.210368    0.208282
      5          1           0        1.490414    2.895870   -0.607769
      6          1           0        1.663705    2.617267    1.167048
      7          1           0        0.350125    1.795602    0.240340
 ---------------------------------------------------------------------
                    Distance matrix (angstroms):
                    1          2          3          4          5
     1  C    0.000000
     2  C    2.449893   0.000000
     3  O    1.638743   1.293907   0.000000
     4  O    3.592809   1.220984   2.331445   0.000000
     5  H    1.088513   3.141049   2.060634   4.312233   0.000000
     6  H    1.088977   3.068202   2.335641   4.038572   1.804889
     7  H    1.088382   2.563125   2.231549   3.709776   1.797259
                    6          7
     6  H    0.000000
     7  H    1.805385   0.000000
 Stoichiometry    C2H3O2(1+)
 Framework group  C1[X(C2H3O2)]
 Deg. of freedom    15
 Full point group                 C1      NOp   1
 Largest Abelian subgroup         C1      NOp   1
 Largest concise Abelian subgroup C1      NOp   1
                         Standard orientation:                         
 ---------------------------------------------------------------------
 Center     Atomic      Atomic             Coordinates (Angstroms)
 Number     Number       Type             X           Y           Z
 ---------------------------------------------------------------------
      1          6           0       -1.726846   -0.267475    0.046096
      2          6           0        0.700825   -0.120464   -0.248489
      3          8           0       -0.337057    0.600669    0.028932
      4          8           0        1.863670   -0.163464    0.121301
      5          1           0       -2.369841    0.538499   -0.302936
      6          1           0       -2.044564   -0.651924    1.014148
      7          1           0       -1.642374   -1.056583   -0.698719
 ---------------------------------------------------------------------
 Rotational constants (GHZ):          43.3625921           4.4448114           4.2084620
 Standard basis: 6-31+G(d,p) (6D, 7F)
 There are    91 symmetry adapted cartesian basis functions of A   symmetry.
 There are    91 symmetry adapted basis functions of A   symmetry.
    91 basis functions,   149 primitive gaussians,    91 cartesian basis functions
    15 alpha electrons       15 beta electrons
       nuclear repulsion energy       107.1563604144 Hartrees.
 NAtoms=    7 NActive=    7 NUniq=    7 SFac= 1.00D+00 NAtFMM=   60 NAOKFM=F Big=F
 Integral buffers will be    131072 words long.
 Raffenetti 2 integral format.
 Two-electron integral symmetry is turned on.
 ------------------------------------------------------------------------------
 Polarizable Continuum Model (PCM)
 =================================
 Model                : PCM.
 Atomic radii         : SMD-Coulomb.
 Polarization charges : Total charges.
 Charge compensation  : None.
 Solution method      : On-the-fly selection.
 Cavity type          : VdW (van der Waals Surface) (Alpha=1.000).
 Cavity algorithm     : GePol (No added spheres)
                        Default sphere list used, NSphG=    7.
                        Lebedev-Laikov grids with approx.  5.0 points / Ang**2.
                        Smoothing algorithm: York/Karplus (Gamma=1.0000).
                        Polarization charges: spherical gaussians, with
                                              point-specific exponents (IZeta= 3).
                        Self-potential: point-specific (ISelfS= 7).
                        Self-field    : sphere-specific E.n sum rule (ISelfD= 2).
 1st derivatives      : Analytical E(r).r(x)/FMM algorithm (CHGder, D1EAlg=3).
                        Cavity 1st derivative terms included.
 Solvent              : Water, Eps=  78.355300 Eps(inf)=   1.777849
 ------------------------------------------------------------------------------
 Spheres list:
 ISph  on   Nord     Re0    Alpha      Xe            Ye            Ze
    1   C      1    1.8500  1.000     -1.726846     -0.267475      0.046096
    2   C      2    1.8500  1.000      0.700825     -0.120464     -0.248489
    3   O      3    1.5200  1.000     -0.337057      0.600669      0.028932
    4   O      4    1.5200  1.000      1.863670     -0.163464      0.121301
    5   H      5    1.2000  1.000     -2.369841      0.538499     -0.302936
    6   H      6    1.2000  1.000     -2.044564     -0.651924      1.014148
    7   H      7    1.2000  1.000     -1.642374     -1.056583     -0.698719
 ------------------------------------------------------------------------------
 ------------------------------------------------------------------------------
 Atomic radii for non-electrostatic terms: SMD-CDS.
 ------------------------------------------------------------------------------
 Nuclear repulsion after PCM non-electrostatic terms =      107.1663133921 Hartrees.
 One-electron integrals computed using PRISM.
 NBasis=    91 RedAO= T EigKep=  1.60D-03  NBF=    91
 NBsUse=    91 1.00D-06 EigRej= -1.00D+00 NBFU=    91
 Initial guess from the checkpoint file:  "/home/gau/soft/scratch/Gau-152140.chk"
 B after Tr=    -0.000000   -0.000000   -0.000000
         Rot=    0.999759   -0.021395    0.000005   -0.004872 Ang=  -2.51 deg.
 ExpMin= 4.38D-02 ExpMax= 5.48D+03 ExpMxC= 8.25D+02 IAcc=3 IRadAn=         5 AccDes= 0.00D+00
 Harris functional with IExCor= 1009 and IRadAn=       5 diagonalized for initial guess.
 HarFok:  IExCor= 1009 AccDes= 0.00D+00 IRadAn=         5 IDoV= 1 UseB2=F ITyADJ=14
 ICtDFT=  3500011 ScaDFX=  1.000000  1.000000  1.000000  1.000000
 FoFCou: FMM=F IPFlag=           0 FMFlag=      100000 FMFlg1=           0
         NFxFlg=           0 DoJE=T BraDBF=F KetDBF=T FulRan=T
         wScrn=  0.000000 ICntrl=       500 IOpCl=  0 I1Cent=   200000004 NGrid=           0
         NMat0=    1 NMatS0=      1 NMatT0=    0 NMatD0=    1 NMtDS0=    0 NMtDT0=    0
 Petite list used in FoFCou.
 Keep R1 ints in memory in canonical form, NReq=52682743.
 Requested convergence on RMS density matrix=1.00D-08 within 128 cycles.
 Requested convergence on MAX density matrix=1.00D-06.
 Requested convergence on             energy=1.00D-06.
 No special actions if energy rises.
 Inv3:  Mode=1 IEnd=     1279227.
 Iteration    1 A*A^-1 deviation from unit magnitude is 3.55D-15 for    638.
 Iteration    1 A*A^-1 deviation from orthogonality  is 1.53D-15 for    628     91.
 Iteration    1 A^-1*A deviation from unit magnitude is 3.33D-15 for    638.
 Iteration    1 A^-1*A deviation from orthogonality  is 1.02D-15 for    642     76.
 Error on total polarization charges =  0.02057
 SCF Done:  E(RM062X) =  -228.067836302     A.U. after   14 cycles
            NFock= 14  Conv=0.26D-08     -V/T= 2.0115
 SMD-CDS (non-electrostatic) energy       (kcal/mol) =       6.25
 (included in total energy above)
 D1PCM: PCM CHGder 1st derivatives, ID1Alg=3 FixD1E=F DoIter=F DoCFld=F I1PDM=0.
 Calling FoFJK, ICntrl=      2127 FMM=F ISym2X=0 I1Cent= 0 IOpClX= 0 NMat=1 NMatS=1 NMatT=0.
 ***** Axes restored to original set *****
 -------------------------------------------------------------------
 Center     Atomic                   Forces (Hartrees/Bohr)
 Number     Number              X              Y              Z
 -------------------------------------------------------------------
      1        6          -0.003332587    0.010570932   -0.030830339
      2        6           0.175475409   -0.045146836    0.018798459
      3        8          -0.085047873   -0.043122504    0.044024176
      4        8          -0.105953820    0.100530779   -0.033710197
      5        1          -0.002031207    0.000600044    0.003511375
      6        1           0.016870029   -0.016495842    0.000400580
      7        1           0.004020049   -0.006936572   -0.002194053
 -------------------------------------------------------------------
 Cartesian Forces:  Max     0.175475409 RMS     0.057071059

 GradGradGradGradGradGradGradGradGradGradGradGradGradGradGradGradGradGrad
 Berny optimization.
 Using GEDIIS/GDIIS optimizer.
 FormGI is forming the generalized inverse of G from B-inverse, IUseBI=4.
 Internal  Forces:  Max     0.142578128 RMS     0.047463095
 Search for a local minimum.
 Step number   2 out of a maximum of   28
 All quantities printed in internal units (Hartrees-Bohrs-Radians)
 Mixed Optimization -- RFO/linear search
 Update second derivatives using D2CorX and points    1    2
 DE= -6.66D-02 DEPred=-5.88D-02 R= 1.13D+00
 TightC=F SS=  1.41D+00  RLast= 3.06D-01 DXNew= 5.0454D-01 9.1791D-01
 Trust test= 1.13D+00 RLast= 3.06D-01 DXMaxT set to 5.05D-01
 The second derivative matrix:
                          R1        R2        R3        R4        R5
           R1           0.19122
           R2          -0.00017   0.34713
           R3          -0.00059  -0.00008   0.34933
           R4          -0.00032  -0.00004   0.00003   0.34937
           R5          -0.01010  -0.00104  -0.00154  -0.00097   0.53929
           R6          -0.01578  -0.00140  -0.00437  -0.00242  -0.07881
           A1           0.00079   0.00005   0.00038   0.00019   0.00480
           A2          -0.00190  -0.00013  -0.00087  -0.00045  -0.01129
           A3           0.00007   0.00005  -0.00034  -0.00015  -0.00156
           A4           0.00054   0.00003   0.00028   0.00014   0.00340
           A5           0.00041   0.00003   0.00020   0.00010   0.00253
           A6          -0.00137  -0.00024   0.00067   0.00027  -0.00125
           A7           0.00970   0.00093   0.00203   0.00119   0.04497
           A8           0.00251   0.00029   0.00012   0.00012   0.00949
           D1          -0.00018  -0.00003   0.00003   0.00001  -0.00048
           D2           0.00238   0.00034  -0.00043  -0.00013   0.00610
           D3          -0.00196  -0.00028   0.00035   0.00011  -0.00502
           D4           0.00073   0.00011  -0.00019  -0.00007   0.00154
                          R6        A1        A2        A3        A4
           R6           0.55462
           A1           0.00652   0.15975
           A2          -0.01553   0.00061   0.15850
           A3           0.00011  -0.00021   0.00046   0.16046
           A4           0.00444  -0.00015   0.00038  -0.00018   0.15991
           A5           0.00339  -0.00013   0.00031  -0.00012  -0.00008
           A6          -0.00957   0.00109  -0.00248  -0.00135   0.00086
           A7           0.07639  -0.00433   0.01024   0.00078  -0.00302
           A8           0.01927  -0.00132   0.00309   0.00073  -0.00096
           D1          -0.00135   0.00012  -0.00027  -0.00010   0.00009
           D2           0.01761  -0.00153   0.00352   0.00140  -0.00116
           D3          -0.01447   0.00126  -0.00289  -0.00115   0.00095
           D4           0.00529  -0.00050   0.00114   0.00050  -0.00038
                          A5        A6        A7        A8        D1
           A5           0.15994
           A6           0.00060   0.16324
           A7          -0.00227   0.00335   0.20508
           A8          -0.00071  -0.00070  -0.01037   0.24823
           D1           0.00006   0.00021   0.00063   0.00004   0.00231
           D2          -0.00083  -0.00279  -0.00814  -0.00044  -0.00013
           D3           0.00068   0.00229   0.00669   0.00037   0.00011
           D4          -0.00027  -0.00108  -0.00230  -0.00000  -0.00006
                          D2        D3        D4
           D2           0.00413
           D3          -0.00150   0.00353
           D4           0.00080  -0.00066   0.02582
 ITU=  1  0
 Use linear search instead of GDIIS.
     Eigenvalues ---    0.00230   0.02564   0.09351   0.11046   0.14975
     Eigenvalues ---    0.16000   0.16321   0.17517   0.20043   0.25062
     Eigenvalues ---    0.34713   0.34930   0.34937   0.49456   0.62829
 RFO step:  Lambda=-7.70625277D-03 EMin= 2.30091947D-03
 Quartic linear search produced a step of  1.67287.
 Iteration  1 RMS(Cart)=  0.09766404 RMS(Int)=  0.06009146
 Iteration  2 RMS(Cart)=  0.06736202 RMS(Int)=  0.01101545
 Iteration  3 RMS(Cart)=  0.01022808 RMS(Int)=  0.00183536
 Iteration  4 RMS(Cart)=  0.00021844 RMS(Int)=  0.00181200
 Iteration  5 RMS(Cart)=  0.00000014 RMS(Int)=  0.00181200
 Variable       Old X    -DE/DX   Delta X   Delta X   Delta X     New X
                                 (Linear)    (Quad)   (Total)
    R1        3.09678  -0.02885  -0.11111   0.00728  -0.10383   2.99295
    R2        2.05699  -0.00253  -0.00739   0.00096  -0.00643   2.05056
    R3        2.05787  -0.00146  -0.00023  -0.01033  -0.01056   2.04730
    R4        2.05674  -0.00126  -0.00175  -0.00477  -0.00652   2.05023
    R5        2.44513  -0.07522  -0.13041  -0.04363  -0.17404   2.27109
    R6        2.30733  -0.14258  -0.24039  -0.02856  -0.26895   2.03837
    A1        1.67635   0.01379   0.07374  -0.05737   0.01616   1.69251
    A2        2.03060  -0.03703  -0.17142   0.07885  -0.09518   1.93542
    A3        1.88715  -0.00635  -0.04653   0.08377   0.03433   1.92148
    A4        1.95422   0.00912   0.05415  -0.06311  -0.00874   1.94548
    A5        1.94255   0.00580   0.03942  -0.04325  -0.00459   1.93796
    A6        1.95522   0.01413   0.06078  -0.00503   0.05116   2.00638
    A7        2.37263   0.10628   0.34261   0.03877   0.38138   2.75400
    A8        1.96846   0.01853   0.05181   0.03147   0.08329   2.05175
    D1       -2.58190  -0.00301  -0.01521   0.08942   0.07332  -2.50858
    D2        1.63864  -0.00803  -0.06462   0.16902   0.10808   1.74672
    D3       -0.57871   0.00724   0.04662   0.04140   0.08523  -0.49349
    D4       -2.48435  -0.00603  -0.05458   0.22706   0.17247  -2.31187
         Item               Value     Threshold  Converged?
 Maximum Force            0.142578     0.000450     NO 
 RMS     Force            0.047463     0.000300     NO 
 Maximum Displacement     0.396516     0.001800     NO 
 RMS     Displacement     0.151937     0.001200     NO 
 Predicted change in Energy=-7.070940D-02
 GradGradGradGradGradGradGradGradGradGradGradGradGradGradGradGradGradGrad

                          Input orientation:                          
 ---------------------------------------------------------------------
 Center     Atomic      Atomic             Coordinates (Angstroms)
 Number     Number       Type             X           Y           Z
 ---------------------------------------------------------------------
      1          6           0        1.357092    2.145535    0.208303
      2          6           0        2.135158   -0.091602   -0.113755
      3          8           0        2.380985    1.064471   -0.331478
      4          8           0        2.314133   -1.109915    0.193685
      5          1           0        1.440734    2.834325   -0.625984
      6          1           0        1.715484    2.591632    1.128238
      7          1           0        0.360584    1.720111    0.263711
 ---------------------------------------------------------------------
                    Distance matrix (angstroms):
                    1          2          3          4          5
     1  C    0.000000
     2  C    2.390375   0.000000
     3  O    1.583799   1.201807   0.000000
     4  O    3.393243   1.078661   2.237905   0.000000
     5  H    1.085109   3.050517   2.025632   4.122100   0.000000
     6  H    1.083387   2.986372   2.214923   3.864352   1.792116
     7  H    1.084935   2.563962   2.205931   3.439521   1.788785
                    6          7
     6  H    0.000000
     7  H    1.828307   0.000000
 Stoichiometry    C2H3O2(1+)
 Framework group  C1[X(C2H3O2)]
 Deg. of freedom    15
 Full point group                 C1      NOp   1
 Largest Abelian subgroup         C1      NOp   1
 Largest concise Abelian subgroup C1      NOp   1
                         Standard orientation:                         
 ---------------------------------------------------------------------
 Center     Atomic      Atomic             Coordinates (Angstroms)
 Number     Number       Type             X           Y           Z
 ---------------------------------------------------------------------
      1          6           0       -1.644699   -0.296996    0.014415
      2          6           0        0.718775    0.031286   -0.127411
      3          8           0       -0.332757    0.590019    0.035189
      4          8           0        1.747685   -0.234278    0.057872
      5          1           0       -2.285577    0.427194   -0.477810
      6          1           0       -1.984651   -0.507576    1.021299
      7          1           0       -1.493653   -1.171285   -0.609995
 ---------------------------------------------------------------------
 Rotational constants (GHZ):          45.1055579           4.9458686           4.6139590
 Standard basis: 6-31+G(d,p) (6D, 7F)
 There are    91 symmetry adapted cartesian basis functions of A   symmetry.
 There are    91 symmetry adapted basis functions of A   symmetry.
    91 basis functions,   149 primitive gaussians,    91 cartesian basis functions
    15 alpha electrons       15 beta electrons
       nuclear repulsion energy       113.5896655080 Hartrees.
 NAtoms=    7 NActive=    7 NUniq=    7 SFac= 1.00D+00 NAtFMM=   60 NAOKFM=F Big=F
 Integral buffers will be    131072 words long.
 Raffenetti 2 integral format.
 Two-electron integral symmetry is turned on.
 ------------------------------------------------------------------------------
 Polarizable Continuum Model (PCM)
 =================================
 Model                : PCM.
 Atomic radii         : SMD-Coulomb.
 Polarization charges : Total charges.
 Charge compensation  : None.
 Solution method      : On-the-fly selection.
 Cavity type          : VdW (van der Waals Surface) (Alpha=1.000).
 Cavity algorithm     : GePol (No added spheres)
                        Default sphere list used, NSphG=    7.
                        Lebedev-Laikov grids with approx.  5.0 points / Ang**2.
                        Smoothing algorithm: York/Karplus (Gamma=1.0000).
                        Polarization charges: spherical gaussians, with
                                              point-specific exponents (IZeta= 3).
                        Self-potential: point-specific (ISelfS= 7).
                        Self-field    : sphere-specific E.n sum rule (ISelfD= 2).
 1st derivatives      : Analytical E(r).r(x)/FMM algorithm (CHGder, D1EAlg=3).
                        Cavity 1st derivative terms included.
 Solvent              : Water, Eps=  78.355300 Eps(inf)=   1.777849
 ------------------------------------------------------------------------------
 Spheres list:
 ISph  on   Nord     Re0    Alpha      Xe            Ye            Ze
    1   C      1    1.8500  1.000     -1.644699     -0.296996      0.014415
    2   C      2    1.8500  1.000      0.718775      0.031286     -0.127411
    3   O      3    1.5200  1.000     -0.332757      0.590019      0.035189
    4   O      4    1.5200  1.000      1.747685     -0.234278      0.057872
    5   H      5    1.2000  1.000     -2.285577      0.427194     -0.477810
    6   H      6    1.2000  1.000     -1.984651     -0.507576      1.021299
    7   H      7    1.2000  1.000     -1.493653     -1.171285     -0.609995
 ------------------------------------------------------------------------------
 ------------------------------------------------------------------------------
 Atomic radii for non-electrostatic terms: SMD-CDS.
 ------------------------------------------------------------------------------
 Nuclear repulsion after PCM non-electrostatic terms =      113.5999469621 Hartrees.
 One-electron integrals computed using PRISM.
 NBasis=    91 RedAO= T EigKep=  1.27D-03  NBF=    91
 NBsUse=    91 1.00D-06 EigRej= -1.00D+00 NBFU=    91
 Initial guess from the checkpoint file:  "/home/gau/soft/scratch/Gau-152140.chk"
 B after Tr=     0.000000    0.000000    0.000000
         Rot=    0.999984    0.004879    0.002575   -0.001538 Ang=   0.66 deg.
 ExpMin= 4.38D-02 ExpMax= 5.48D+03 ExpMxC= 8.25D+02 IAcc=3 IRadAn=         5 AccDes= 0.00D+00
 Harris functional with IExCor= 1009 and IRadAn=       5 diagonalized for initial guess.
 HarFok:  IExCor= 1009 AccDes= 0.00D+00 IRadAn=         5 IDoV= 1 UseB2=F ITyADJ=14
 ICtDFT=  3500011 ScaDFX=  1.000000  1.000000  1.000000  1.000000
 FoFCou: FMM=F IPFlag=           0 FMFlag=      100000 FMFlg1=           0
         NFxFlg=           0 DoJE=T BraDBF=F KetDBF=T FulRan=T
         wScrn=  0.000000 ICntrl=       500 IOpCl=  0 I1Cent=   200000004 NGrid=           0
         NMat0=    1 NMatS0=      1 NMatT0=    0 NMatD0=    1 NMtDS0=    0 NMtDT0=    0
 Petite list used in FoFCou.
 Keep R1 ints in memory in canonical form, NReq=52682743.
 Requested convergence on RMS density matrix=1.00D-08 within 128 cycles.
 Requested convergence on MAX density matrix=1.00D-06.
 Requested convergence on             energy=1.00D-06.
 No special actions if energy rises.
 Inv3:  Mode=1 IEnd=     1263603.
 Iteration    1 A*A^-1 deviation from unit magnitude is 3.11D-15 for    627.
 Iteration    1 A*A^-1 deviation from orthogonality  is 1.60D-15 for    489    115.
 Iteration    1 A^-1*A deviation from unit magnitude is 2.89D-15 for    627.
 Iteration    1 A^-1*A deviation from orthogonality  is 1.26D-15 for    616      2.
 Error on total polarization charges =  0.01946
 SCF Done:  E(RM062X) =  -228.114874094     A.U. after   12 cycles
            NFock= 12  Conv=0.69D-08     -V/T= 2.0072
 SMD-CDS (non-electrostatic) energy       (kcal/mol) =       6.45
 (included in total energy above)
 D1PCM: PCM CHGder 1st derivatives, ID1Alg=3 FixD1E=F DoIter=F DoCFld=F I1PDM=0.
 Calling FoFJK, ICntrl=      2127 FMM=F ISym2X=0 I1Cent= 0 IOpClX= 0 NMat=1 NMatS=1 NMatT=0.
 ***** Axes restored to original set *****
 -------------------------------------------------------------------
 Center     Atomic                   Forces (Hartrees/Bohr)
 Number     Number              X              Y              Z
 -------------------------------------------------------------------
      1        6           0.002654120    0.013082309   -0.025643413
      2        6           0.021711896    0.136586065   -0.022653261
      3        8          -0.034926453    0.039177578    0.003772424
      4        8           0.000724944   -0.172139561    0.038439452
      5        1          -0.003054186    0.003265614    0.002080009
      6        1           0.009927070   -0.011036523    0.003118127
      7        1           0.002962609   -0.008935483    0.000886662
 -------------------------------------------------------------------
 Cartesian Forces:  Max     0.172139561 RMS     0.051036411

 GradGradGradGradGradGradGradGradGradGradGradGradGradGradGradGradGradGrad
 Berny optimization.
 Using GEDIIS/GDIIS optimizer.
 FormGI is forming the generalized inverse of G from B-inverse, IUseBI=4.
 Internal  Forces:  Max     0.173570427 RMS     0.045174884
 Search for a local minimum.
 Step number   3 out of a maximum of   28
 All quantities printed in internal units (Hartrees-Bohrs-Radians)
 Mixed Optimization -- RFO/linear search
 Update second derivatives using D2CorX and points    2    3
 DE= -4.70D-02 DEPred=-7.07D-02 R= 6.65D-01
 TightC=F SS=  1.41D+00  RLast= 5.77D-01 DXNew= 8.4853D-01 1.7319D+00
 Trust test= 6.65D-01 RLast= 5.77D-01 DXMaxT set to 8.49D-01
 The second derivative matrix:
                          R1        R2        R3        R4        R5
           R1           0.19071
           R2          -0.00012   0.34717
           R3          -0.00055  -0.00005   0.34936
           R4          -0.00027  -0.00001   0.00006   0.34939
           R5          -0.00869   0.00021  -0.00032   0.00006   0.58515
           R6          -0.00271   0.00344   0.00047   0.00147   0.10449
           A1           0.00061   0.00004   0.00037   0.00019   0.00435
           A2          -0.00129   0.00009  -0.00065  -0.00027  -0.00299
           A3           0.00059   0.00006  -0.00032  -0.00015  -0.00068
           A4          -0.00047  -0.00012   0.00012   0.00003  -0.00292
           A5          -0.00014  -0.00005   0.00012   0.00005  -0.00058
           A6           0.00008  -0.00012   0.00081   0.00035   0.00418
           A7           0.01341   0.00098   0.00213   0.00118   0.04965
           A8           0.00341   0.00034   0.00018   0.00015   0.01190
           D1           0.00012   0.00003   0.00009   0.00005   0.00174
           D2           0.00075   0.00011  -0.00067  -0.00030  -0.00308
           D3          -0.00053  -0.00008   0.00056   0.00026   0.00311
           D4           0.00125   0.00020  -0.00009   0.00000   0.00526
                          R6        A1        A2        A3        A4
           R6           1.18665
           A1           0.00707   0.15970
           A2           0.01290   0.00064   0.15978
           A3          -0.00300  -0.00006   0.00030   0.16005
           A4          -0.00989  -0.00035  -0.00025   0.00042   0.15959
           A5          -0.00283  -0.00024   0.00004   0.00023  -0.00032
           A6          -0.00514   0.00144  -0.00230  -0.00239   0.00199
           A7           0.04700  -0.00326   0.00884  -0.00230   0.00158
           A8           0.01773  -0.00109   0.00300   0.00004  -0.00008
           D1           0.00433   0.00017  -0.00002  -0.00027   0.00013
           D2          -0.00086  -0.00187   0.00271   0.00242  -0.00188
           D3           0.00204   0.00155  -0.00217  -0.00204   0.00157
           D4           0.01463  -0.00040   0.00155   0.00021  -0.00029
                          A5        A6        A7        A8        D1
           A5           0.15976
           A6           0.00130   0.16091
           A7           0.00038  -0.00437   0.18250
           A8          -0.00018  -0.00234  -0.01548   0.24711
           D1           0.00011  -0.00008  -0.00067  -0.00020   0.00232
           D2          -0.00133  -0.00074  -0.00034   0.00111   0.00000
           D3           0.00112   0.00050  -0.00013  -0.00099  -0.00000
           D4          -0.00018  -0.00158  -0.00455  -0.00042  -0.00005
                          D2        D3        D4
           D2           0.00266
           D3          -0.00023   0.00243
           D4           0.00105  -0.00087   0.02582
 ITU=  1  1  0
 Use linear search instead of GDIIS.
     Eigenvalues ---    0.00230   0.02533   0.09725   0.11113   0.15141
     Eigenvalues ---    0.16024   0.16248   0.17253   0.19911   0.25062
     Eigenvalues ---    0.34716   0.34932   0.34947   0.57220   1.20813
 RFO step:  Lambda=-4.80775028D-02 EMin= 2.29876514D-03
 Quartic linear search produced a step of -0.13816.
 Iteration  1 RMS(Cart)=  0.09087967 RMS(Int)=  0.02596819
 Iteration  2 RMS(Cart)=  0.02918998 RMS(Int)=  0.00648577
 Iteration  3 RMS(Cart)=  0.00564871 RMS(Int)=  0.00313021
 Iteration  4 RMS(Cart)=  0.00042521 RMS(Int)=  0.00310494
 Iteration  5 RMS(Cart)=  0.00000187 RMS(Int)=  0.00310493
 Iteration  6 RMS(Cart)=  0.00000000 RMS(Int)=  0.00310493
 Variable       Old X    -DE/DX   Delta X   Delta X   Delta X     New X
                                 (Linear)    (Quad)   (Total)
    R1        2.99295  -0.01712   0.01434  -0.10850  -0.09416   2.89879
    R2        2.05056   0.00022   0.00089  -0.00237  -0.00148   2.04908
    R3        2.04730   0.00136   0.00146  -0.00091   0.00055   2.04786
    R4        2.05023   0.00089   0.00090  -0.00058   0.00032   2.05055
    R5        2.27109   0.03235   0.02405  -0.02458  -0.00053   2.27055
    R6        2.03837   0.17357   0.03716   0.08970   0.12686   2.16523
    A1        1.69251   0.01538  -0.00223   0.08741   0.08517   1.77767
    A2        1.93542  -0.02291   0.01315  -0.15637  -0.14629   1.78913
    A3        1.92148  -0.01179  -0.00474  -0.04765  -0.05571   1.86577
    A4        1.94548   0.00668   0.00121   0.04226   0.04433   1.98982
    A5        1.93796   0.00553   0.00063   0.03995   0.03986   1.97782
    A6        2.00638   0.00730  -0.00707   0.03649   0.02182   2.02820
    A7        2.75400   0.06278  -0.05269   0.33947   0.28678   3.04078
    A8        2.05175   0.01153  -0.01151   0.06578   0.05427   2.10602
    D1       -2.50858  -0.00140  -0.01013   0.01334   0.00177  -2.50681
    D2        1.74672  -0.00892  -0.01493  -0.02569  -0.03316   1.71355
    D3       -0.49349   0.00821  -0.01177   0.08338   0.06559  -0.42790
    D4       -2.31187  -0.00355  -0.02383   0.01152  -0.01230  -2.32418
         Item               Value     Threshold  Converged?
 Maximum Force            0.173570     0.000450     NO 
 RMS     Force            0.045175     0.000300     NO 
 Maximum Displacement     0.232902     0.001800     NO 
 RMS     Displacement     0.113096     0.001200     NO 
 Predicted change in Energy=-2.734403D-02
 GradGradGradGradGradGradGradGradGradGradGradGradGradGradGradGradGradGrad

                          Input orientation:                          
 ---------------------------------------------------------------------
 Center     Atomic      Atomic             Coordinates (Angstroms)
 Number     Number       Type             X           Y           Z
 ---------------------------------------------------------------------
      1          6           0        1.347152    2.162747    0.172719
      2          6           0        2.232376   -0.036721   -0.062970
      3          8           0        2.390647    1.134145   -0.281340
      4          8           0        2.190886   -1.155246    0.182021
      5          1           0        1.370976    2.878482   -0.641476
      6          1           0        1.770779    2.533869    1.098554
      7          1           0        0.401356    1.637283    0.255212
 ---------------------------------------------------------------------
                    Distance matrix (angstroms):
                    1          2          3          4          5
     1  C    0.000000
     2  C    2.382611   0.000000
     3  O    1.533973   1.201526   0.000000
     4  O    3.423602   1.145792   2.344337   0.000000
     5  H    1.084324   3.094364   2.052349   4.197780   0.000000
     6  H    1.083679   2.858346   2.060963   3.824407   1.818324
     7  H    1.085102   2.501232   2.120922   3.317527   1.812399
                    6          7
     6  H    0.000000
     7  H    1.841306   0.000000
 Stoichiometry    C2H3O2(1+)
 Framework group  C1[X(C2H3O2)]
 Deg. of freedom    15
 Full point group                 C1      NOp   1
 Largest Abelian subgroup         C1      NOp   1
 Largest concise Abelian subgroup C1      NOp   1
                         Standard orientation:                         
 ---------------------------------------------------------------------
 Center     Atomic      Atomic             Coordinates (Angstroms)
 Number     Number       Type             X           Y           Z
 ---------------------------------------------------------------------
      1          6           0       -1.633550   -0.326377    0.005151
      2          6           0        0.706935    0.118002   -0.033479
      3          8           0       -0.399511    0.584788    0.005926
      4          8           0        1.789291   -0.254846    0.014763
      5          1           0       -2.334026    0.247861   -0.590954
      6          1           0       -1.888249   -0.377492    1.057232
      7          1           0       -1.336281   -1.259659   -0.461821
 ---------------------------------------------------------------------
 Rotational constants (GHZ):          44.3407206           4.8640415           4.5172905
 Standard basis: 6-31+G(d,p) (6D, 7F)
 There are    91 symmetry adapted cartesian basis functions of A   symmetry.
 There are    91 symmetry adapted basis functions of A   symmetry.
    91 basis functions,   149 primitive gaussians,    91 cartesian basis functions
    15 alpha electrons       15 beta electrons
       nuclear repulsion energy       112.2937674225 Hartrees.
 NAtoms=    7 NActive=    7 NUniq=    7 SFac= 1.00D+00 NAtFMM=   60 NAOKFM=F Big=F
 Integral buffers will be    131072 words long.
 Raffenetti 2 integral format.
 Two-electron integral symmetry is turned on.
 ------------------------------------------------------------------------------
 Polarizable Continuum Model (PCM)
 =================================
 Model                : PCM.
 Atomic radii         : SMD-Coulomb.
 Polarization charges : Total charges.
 Charge compensation  : None.
 Solution method      : On-the-fly selection.
 Cavity type          : VdW (van der Waals Surface) (Alpha=1.000).
 Cavity algorithm     : GePol (No added spheres)
                        Default sphere list used, NSphG=    7.
                        Lebedev-Laikov grids with approx.  5.0 points / Ang**2.
                        Smoothing algorithm: York/Karplus (Gamma=1.0000).
                        Polarization charges: spherical gaussians, with
                                              point-specific exponents (IZeta= 3).
                        Self-potential: point-specific (ISelfS= 7).
                        Self-field    : sphere-specific E.n sum rule (ISelfD= 2).
 1st derivatives      : Analytical E(r).r(x)/FMM algorithm (CHGder, D1EAlg=3).
                        Cavity 1st derivative terms included.
 Solvent              : Water, Eps=  78.355300 Eps(inf)=   1.777849
 ------------------------------------------------------------------------------
 Spheres list:
 ISph  on   Nord     Re0    Alpha      Xe            Ye            Ze
    1   C      1    1.8500  1.000     -1.633550     -0.326377      0.005151
    2   C      2    1.8500  1.000      0.706935      0.118002     -0.033479
    3   O      3    1.5200  1.000     -0.399511      0.584788      0.005926
    4   O      4    1.5200  1.000      1.789291     -0.254846      0.014763
    5   H      5    1.2000  1.000     -2.334026      0.247861     -0.590954
    6   H      6    1.2000  1.000     -1.888249     -0.377492      1.057232
    7   H      7    1.2000  1.000     -1.336281     -1.259659     -0.461821
 ------------------------------------------------------------------------------
 ------------------------------------------------------------------------------
 Atomic radii for non-electrostatic terms: SMD-CDS.
 ------------------------------------------------------------------------------
 Nuclear repulsion after PCM non-electrostatic terms =      112.3040349250 Hartrees.
 One-electron integrals computed using PRISM.
 NBasis=    91 RedAO= T EigKep=  9.69D-04  NBF=    91
 NBsUse=    91 1.00D-06 EigRej= -1.00D+00 NBFU=    91
 Initial guess from the checkpoint file:  "/home/gau/soft/scratch/Gau-152140.chk"
 B after Tr=     0.000000   -0.000000   -0.000000
         Rot=    0.999454    0.031199   -0.000840   -0.010839 Ang=   3.79 deg.
 ExpMin= 4.38D-02 ExpMax= 5.48D+03 ExpMxC= 8.25D+02 IAcc=3 IRadAn=         5 AccDes= 0.00D+00
 Harris functional with IExCor= 1009 and IRadAn=       5 diagonalized for initial guess.
 HarFok:  IExCor= 1009 AccDes= 0.00D+00 IRadAn=         5 IDoV= 1 UseB2=F ITyADJ=14
 ICtDFT=  3500011 ScaDFX=  1.000000  1.000000  1.000000  1.000000
 FoFCou: FMM=F IPFlag=           0 FMFlag=      100000 FMFlg1=           0
         NFxFlg=           0 DoJE=T BraDBF=F KetDBF=T FulRan=T
         wScrn=  0.000000 ICntrl=       500 IOpCl=  0 I1Cent=   200000004 NGrid=           0
         NMat0=    1 NMatS0=      1 NMatT0=    0 NMatD0=    1 NMtDS0=    0 NMtDT0=    0
 Petite list used in FoFCou.
 Keep R1 ints in memory in canonical form, NReq=52682743.
 Requested convergence on RMS density matrix=1.00D-08 within 128 cycles.
 Requested convergence on MAX density matrix=1.00D-06.
 Requested convergence on             energy=1.00D-06.
 No special actions if energy rises.
 Inv3:  Mode=1 IEnd=     1248075.
 Iteration    1 A*A^-1 deviation from unit magnitude is 2.66D-15 for    630.
 Iteration    1 A*A^-1 deviation from orthogonality  is 1.42D-15 for    644      6.
 Iteration    1 A^-1*A deviation from unit magnitude is 2.44D-15 for    621.
 Iteration    1 A^-1*A deviation from orthogonality  is 3.99D-15 for    414    370.
 Error on total polarization charges =  0.01967
 SCF Done:  E(RM062X) =  -228.137488235     A.U. after   12 cycles
            NFock= 12  Conv=0.50D-08     -V/T= 2.0089
 SMD-CDS (non-electrostatic) energy       (kcal/mol) =       6.44
 (included in total energy above)
 D1PCM: PCM CHGder 1st derivatives, ID1Alg=3 FixD1E=F DoIter=F DoCFld=F I1PDM=0.
 Calling FoFJK, ICntrl=      2127 FMM=F ISym2X=0 I1Cent= 0 IOpClX= 0 NMat=1 NMatS=1 NMatT=0.
 ***** Axes restored to original set *****
 -------------------------------------------------------------------
 Center     Atomic                   Forces (Hartrees/Bohr)
 Number     Number              X              Y              Z
 -------------------------------------------------------------------
      1        6           0.000801932    0.005305194   -0.003005996
      2        6           0.007940550   -0.028759994    0.013042992
      3        8          -0.003945287   -0.003820594   -0.004165649
      4        8          -0.002201937    0.025809993   -0.010163389
      5        1          -0.000174633    0.000649685    0.000571727
      6        1          -0.002375330    0.000722015    0.001823345
      7        1          -0.000045295    0.000093702    0.001896971
 -------------------------------------------------------------------
 Cartesian Forces:  Max     0.028759994 RMS     0.009596189

 GradGradGradGradGradGradGradGradGradGradGradGradGradGradGradGradGradGrad
 Berny optimization.
 Using GEDIIS/GDIIS optimizer.
 FormGI is forming the generalized inverse of G from B-inverse, IUseBI=4.
 Internal  Forces:  Max     0.027286282 RMS     0.007351760
 Search for a local minimum.
 Step number   4 out of a maximum of   28
 All quantities printed in internal units (Hartrees-Bohrs-Radians)
 Mixed Optimization -- RFO/linear search
 Update second derivatives using D2CorX and points    3    4
 DE= -2.26D-02 DEPred=-2.73D-02 R= 8.27D-01
 TightC=F SS=  1.41D+00  RLast= 3.89D-01 DXNew= 1.4270D+00 1.1677D+00
 Trust test= 8.27D-01 RLast= 3.89D-01 DXMaxT set to 1.17D+00
 The second derivative matrix:
                          R1        R2        R3        R4        R5
           R1           0.19683
           R2          -0.00015   0.34717
           R3          -0.00041  -0.00005   0.34933
           R4          -0.00036  -0.00002   0.00004   0.34939
           R5          -0.01274   0.00020  -0.00080  -0.00004   0.58242
           R6          -0.04219   0.00351  -0.00181   0.00149   0.11139
           A1          -0.00151   0.00004   0.00015   0.00015   0.00345
           A2           0.00471   0.00007  -0.00041  -0.00032  -0.00555
           A3           0.00270   0.00006  -0.00017  -0.00014  -0.00063
           A4          -0.00177  -0.00012   0.00002   0.00002  -0.00298
           A5          -0.00063  -0.00005   0.00001   0.00002  -0.00161
           A6          -0.00397  -0.00009   0.00085   0.00046   0.00875
           A7           0.00658   0.00095   0.00123   0.00099   0.04378
           A8           0.00524   0.00030  -0.00006   0.00002   0.00686
           D1           0.00085   0.00002   0.00006   0.00003   0.00071
           D2           0.00399   0.00009  -0.00072  -0.00039  -0.00691
           D3          -0.00367  -0.00005   0.00061   0.00035   0.00684
           D4           0.00246   0.00019  -0.00011  -0.00003   0.00379
                          R6        A1        A2        A3        A4
           R6           1.37294
           A1           0.01255   0.15945
           A2          -0.02079  -0.00083   0.16530
           A3          -0.01145  -0.00018   0.00199   0.16039
           A4          -0.00476  -0.00029  -0.00129   0.00022   0.15971
           A5          -0.00453  -0.00065  -0.00008   0.00043  -0.00045
           A6           0.02771   0.00364  -0.00677  -0.00429   0.00318
           A7           0.05413  -0.00532   0.00486  -0.00188   0.00125
           A8          -0.00764  -0.00335   0.00579   0.00169  -0.00112
           D1          -0.00231  -0.00032   0.00084   0.00013  -0.00012
           D2          -0.02775  -0.00370   0.00634   0.00399  -0.00286
           D3           0.02820   0.00334  -0.00569  -0.00357   0.00253
           D4           0.00446  -0.00110   0.00291   0.00081  -0.00066
                          A5        A6        A7        A8        D1
           A5           0.15946
           A6           0.00209   0.16294
           A7          -0.00169   0.00377   0.17017
           A8          -0.00129  -0.00221  -0.02488   0.24493
           D1          -0.00009  -0.00037  -0.00253  -0.00037   0.00235
           D2          -0.00201  -0.00230  -0.00719   0.00088   0.00022
           D3           0.00178   0.00201   0.00655  -0.00075  -0.00021
           D4          -0.00044  -0.00216  -0.00717  -0.00052   0.00002
                          D2        D3        D4
           D2           0.00385
           D3          -0.00138   0.00354
           D4           0.00149  -0.00130   0.02598
 ITU=  1  1  1  0
 Use linear search instead of GDIIS.
     Eigenvalues ---    0.00230   0.02532   0.10759   0.11102   0.15018
     Eigenvalues ---    0.16018   0.16343   0.17114   0.19947   0.25251
     Eigenvalues ---    0.34716   0.34931   0.34943   0.57047   1.39414
 RFO step:  Lambda=-1.74312323D-03 EMin= 2.29645466D-03
 Quartic linear search produced a step of -0.03129.
 Iteration  1 RMS(Cart)=  0.01998302 RMS(Int)=  0.00716866
 Iteration  2 RMS(Cart)=  0.00391093 RMS(Int)=  0.00065854
 Iteration  3 RMS(Cart)=  0.00057554 RMS(Int)=  0.00011846
 Iteration  4 RMS(Cart)=  0.00000486 RMS(Int)=  0.00011779
 Iteration  5 RMS(Cart)=  0.00000000 RMS(Int)=  0.00011779
 Variable       Old X    -DE/DX   Delta X   Delta X   Delta X     New X
                                 (Linear)    (Quad)   (Total)
    R1        2.89879   0.00614   0.00295   0.02137   0.02432   2.92311
    R2        2.04908   0.00002   0.00005   0.00004   0.00009   2.04916
    R3        2.04786   0.00084  -0.00002   0.00215   0.00213   2.04999
    R4        2.05055   0.00016  -0.00001   0.00041   0.00040   2.05095
    R5        2.27055   0.00263   0.00002   0.00445   0.00446   2.27502
    R6        2.16523  -0.02729  -0.00397  -0.01764  -0.02161   2.14362
    A1        1.77767   0.00125  -0.00267   0.01598   0.01324   1.79092
    A2        1.78913   0.00365   0.00458   0.01144   0.01605   1.80518
    A3        1.86577   0.00005   0.00174  -0.00392  -0.00210   1.86367
    A4        1.98982  -0.00074  -0.00139  -0.00106  -0.00262   1.98720
    A5        1.97782   0.00010  -0.00125   0.00398   0.00270   1.98052
    A6        2.02820  -0.00310  -0.00068  -0.02017  -0.02065   2.00755
    A7        3.04078   0.00934  -0.00897   0.06967   0.06070   3.10148
    A8        2.10602   0.00829  -0.00170   0.03939   0.03770   2.14372
    D1       -2.50681  -0.00009  -0.00006  -0.03810  -0.03803  -2.54484
    D2        1.71355  -0.00105   0.00104  -0.04686  -0.04615   1.66740
    D3       -0.42790   0.00062  -0.00205  -0.02780  -0.02965  -0.45756
    D4       -2.32418  -0.00068   0.00039  -0.00891  -0.00852  -2.33270
         Item               Value     Threshold  Converged?
 Maximum Force            0.027286     0.000450     NO 
 RMS     Force            0.007352     0.000300     NO 
 Maximum Displacement     0.055061     0.001800     NO 
 RMS     Displacement     0.024433     0.001200     NO 
 Predicted change in Energy=-9.265739D-04
 GradGradGradGradGradGradGradGradGradGradGradGradGradGradGradGradGradGrad

                          Input orientation:                          
 ---------------------------------------------------------------------
 Center     Atomic      Atomic             Coordinates (Angstroms)
 Number     Number       Type             X           Y           Z
 ---------------------------------------------------------------------
      1          6           0        1.345684    2.171131    0.168965
      2          6           0        2.261513   -0.058582   -0.056153
      3          8           0        2.380288    1.116509   -0.289387
      4          8           0        2.193186   -1.166689    0.176643
      5          1           0        1.369614    2.893292   -0.639596
      6          1           0        1.759590    2.541766    1.100692
      7          1           0        0.394295    1.657131    0.261557
 ---------------------------------------------------------------------
                    Distance matrix (angstroms):
                    1          2          3          4          5
     1  C    0.000000
     2  C    2.420959   0.000000
     3  O    1.546842   1.203887   0.000000
     4  O    3.443742   1.134356   2.337773   0.000000
     5  H    1.084370   3.138383   2.073901   4.222316   0.000000
     6  H    1.084806   2.889987   2.085412   3.846363   1.817761
     7  H    1.085316   2.555604   2.130723   3.349205   1.814227
                    6          7
     6  H    0.000000
     7  H    1.830507   0.000000
 Stoichiometry    C2H3O2(1+)
 Framework group  C1[X(C2H3O2)]
 Deg. of freedom    15
 Full point group                 C1      NOp   1
 Largest Abelian subgroup         C1      NOp   1
 Largest concise Abelian subgroup C1      NOp   1
                         Standard orientation:                         
 ---------------------------------------------------------------------
 Center     Atomic      Atomic             Coordinates (Angstroms)
 Number     Number       Type             X           Y           Z
 ---------------------------------------------------------------------
      1          6           0       -1.652670   -0.318277    0.002463
      2          6           0        0.726437    0.129651   -0.013264
      3          8           0       -0.391185    0.576918    0.001394
      4          8           0        1.790621   -0.262653    0.006069
      5          1           0       -2.357437    0.265044   -0.579688
      6          1           0       -1.907898   -0.392697    1.054187
      7          1           0       -1.372753   -1.254710   -0.469398
 ---------------------------------------------------------------------
 Rotational constants (GHZ):          44.8502894           4.8037532           4.4681812
 Standard basis: 6-31+G(d,p) (6D, 7F)
 There are    91 symmetry adapted cartesian basis functions of A   symmetry.
 There are    91 symmetry adapted basis functions of A   symmetry.
    91 basis functions,   149 primitive gaussians,    91 cartesian basis functions
    15 alpha electrons       15 beta electrons
       nuclear repulsion energy       112.0737977337 Hartrees.
 NAtoms=    7 NActive=    7 NUniq=    7 SFac= 1.00D+00 NAtFMM=   60 NAOKFM=F Big=F
 Integral buffers will be    131072 words long.
 Raffenetti 2 integral format.
 Two-electron integral symmetry is turned on.
 ------------------------------------------------------------------------------
 Polarizable Continuum Model (PCM)
 =================================
 Model                : PCM.
 Atomic radii         : SMD-Coulomb.
 Polarization charges : Total charges.
 Charge compensation  : None.
 Solution method      : On-the-fly selection.
 Cavity type          : VdW (van der Waals Surface) (Alpha=1.000).
 Cavity algorithm     : GePol (No added spheres)
                        Default sphere list used, NSphG=    7.
                        Lebedev-Laikov grids with approx.  5.0 points / Ang**2.
                        Smoothing algorithm: York/Karplus (Gamma=1.0000).
                        Polarization charges: spherical gaussians, with
                                              point-specific exponents (IZeta= 3).
                        Self-potential: point-specific (ISelfS= 7).
                        Self-field    : sphere-specific E.n sum rule (ISelfD= 2).
 1st derivatives      : Analytical E(r).r(x)/FMM algorithm (CHGder, D1EAlg=3).
                        Cavity 1st derivative terms included.
 Solvent              : Water, Eps=  78.355300 Eps(inf)=   1.777849
 ------------------------------------------------------------------------------
 Spheres list:
 ISph  on   Nord     Re0    Alpha      Xe            Ye            Ze
    1   C      1    1.8500  1.000     -1.652670     -0.318277      0.002463
    2   C      2    1.8500  1.000      0.726437      0.129651     -0.013264
    3   O      3    1.5200  1.000     -0.391185      0.576918      0.001394
    4   O      4    1.5200  1.000      1.790621     -0.262653      0.006069
    5   H      5    1.2000  1.000     -2.357437      0.265044     -0.579688
    6   H      6    1.2000  1.000     -1.907898     -0.392697      1.054187
    7   H      7    1.2000  1.000     -1.372753     -1.254710     -0.469398
 ------------------------------------------------------------------------------
 ------------------------------------------------------------------------------
 Atomic radii for non-electrostatic terms: SMD-CDS.
 ------------------------------------------------------------------------------
 Nuclear repulsion after PCM non-electrostatic terms =      112.0841448631 Hartrees.
 One-electron integrals computed using PRISM.
 NBasis=    91 RedAO= T EigKep=  9.13D-04  NBF=    91
 NBsUse=    91 1.00D-06 EigRej= -1.00D+00 NBFU=    91
 Initial guess from the checkpoint file:  "/home/gau/soft/scratch/Gau-152140.chk"
 B after Tr=     0.000000    0.000000    0.000000
         Rot=    0.999989   -0.004143   -0.000121    0.002145 Ang=  -0.53 deg.
 ExpMin= 4.38D-02 ExpMax= 5.48D+03 ExpMxC= 8.25D+02 IAcc=3 IRadAn=         5 AccDes= 0.00D+00
 Harris functional with IExCor= 1009 and IRadAn=       5 diagonalized for initial guess.
 HarFok:  IExCor= 1009 AccDes= 0.00D+00 IRadAn=         5 IDoV= 1 UseB2=F ITyADJ=14
 ICtDFT=  3500011 ScaDFX=  1.000000  1.000000  1.000000  1.000000
 FoFCou: FMM=F IPFlag=           0 FMFlag=      100000 FMFlg1=           0
         NFxFlg=           0 DoJE=T BraDBF=F KetDBF=T FulRan=T
         wScrn=  0.000000 ICntrl=       500 IOpCl=  0 I1Cent=   200000004 NGrid=           0
         NMat0=    1 NMatS0=      1 NMatT0=    0 NMatD0=    1 NMtDS0=    0 NMtDT0=    0
 Petite list used in FoFCou.
 Keep R1 ints in memory in canonical form, NReq=52682743.
 Requested convergence on RMS density matrix=1.00D-08 within 128 cycles.
 Requested convergence on MAX density matrix=1.00D-06.
 Requested convergence on             energy=1.00D-06.
 No special actions if energy rises.
 Inv3:  Mode=1 IEnd=     1236492.
 Iteration    1 A*A^-1 deviation from unit magnitude is 2.89D-15 for    623.
 Iteration    1 A*A^-1 deviation from orthogonality  is 1.80D-15 for    527     58.
 Iteration    1 A^-1*A deviation from unit magnitude is 3.11D-15 for    623.
 Iteration    1 A^-1*A deviation from orthogonality  is 8.18D-16 for    625     77.
 Error on total polarization charges =  0.01962
 SCF Done:  E(RM062X) =  -228.138394409     A.U. after   11 cycles
            NFock= 11  Conv=0.31D-08     -V/T= 2.0088
 SMD-CDS (non-electrostatic) energy       (kcal/mol) =       6.49
 (included in total energy above)
 D1PCM: PCM CHGder 1st derivatives, ID1Alg=3 FixD1E=F DoIter=F DoCFld=F I1PDM=0.
 Calling FoFJK, ICntrl=      2127 FMM=F ISym2X=0 I1Cent= 0 IOpClX= 0 NMat=1 NMatS=1 NMatT=0.
 ***** Axes restored to original set *****
 -------------------------------------------------------------------
 Center     Atomic                   Forces (Hartrees/Bohr)
 Number     Number              X              Y              Z
 -------------------------------------------------------------------
      1        6           0.000035675    0.002085253   -0.000421354
      2        6          -0.000887878    0.004033705    0.005251017
      3        8          -0.002114910   -0.002684476   -0.001880731
      4        8           0.001073019   -0.000414464   -0.003255167
      5        1           0.001534891   -0.001114769   -0.000660873
      6        1          -0.000046376   -0.000701497    0.000512108
      7        1           0.000405578   -0.001203752    0.000455000
 -------------------------------------------------------------------
 Cartesian Forces:  Max     0.005251017 RMS     0.001986951

 GradGradGradGradGradGradGradGradGradGradGradGradGradGradGradGradGradGrad
 Berny optimization.
 Using GEDIIS/GDIIS optimizer.
 FormGI is forming the generalized inverse of G from B-inverse, IUseBI=4.
 Internal  Forces:  Max     0.003165742 RMS     0.001387364
 Search for a local minimum.
 Step number   5 out of a maximum of   28
 All quantities printed in internal units (Hartrees-Bohrs-Radians)
 Mixed Optimization -- RFO/linear search
 Update second derivatives using D2CorX and points    3    4    5
 DE= -9.06D-04 DEPred=-9.27D-04 R= 9.78D-01
 TightC=F SS=  1.41D+00  RLast= 1.08D-01 DXNew= 1.9637D+00 3.2303D-01
 Trust test= 9.78D-01 RLast= 1.08D-01 DXMaxT set to 1.17D+00
 The second derivative matrix:
                          R1        R2        R3        R4        R5
           R1           0.20983
[...]
 Atom     6 has atomic number  1 and mass   1.00783
 Atom     7 has atomic number  1 and mass   1.00783
 Molecular mass:    59.01330 amu.
 Principal axes and moments of inertia in atomic units:
                           1         2         3
     Eigenvalues --    36.37021 385.37460 409.69029
           X            0.99983   0.01848   0.00000
           Y           -0.01848   0.99983  -0.00000
           Z           -0.00000   0.00000   1.00000
 This molecule is an asymmetric top.
 Rotational symmetry number  1.
 Rotational temperatures (Kelvin)      2.38145     0.22475     0.21141
 Rotational constants (GHZ):          49.62141     4.68308     4.40514
 Zero-point vibrational energy     133869.3 (Joules/Mol)
                                   31.99553 (Kcal/Mol)
 Warning -- explicit consideration of   4 degrees of freedom as
           vibrations may cause significant error
 Vibrational temperatures:    106.43   251.93   832.65   872.34  1058.61
          (Kelvin)           1646.75  1670.51  1899.80  2082.17  2098.72
                             2135.93  3508.81  4533.69  4745.71  4757.51
 
 Zero-point correction=                           0.050988 (Hartree/Particle)
 Thermal correction to Energy=                    0.055703
 Thermal correction to Enthalpy=                  0.056647
 Thermal correction to Gibbs Free Energy=         0.023769
 Sum of electronic and zero-point Energies=           -228.087963
 Sum of electronic and thermal Energies=              -228.083248
 Sum of electronic and thermal Enthalpies=            -228.082304
 Sum of electronic and thermal Free Energies=         -228.115182
 
                     E (Thermal)             CV                S
                      KCal/Mol        Cal/Mol-Kelvin    Cal/Mol-Kelvin
 Total                   34.954             13.531             69.198
 Electronic               0.000              0.000              0.000
 Translational            0.889              2.981             38.146
 Rotational               0.889              2.981             23.267
 Vibrational             33.177              7.569              7.785
 Vibration     1          0.599              1.966              4.045
 Vibration     2          0.627              1.873              2.380
 Vibration     3          0.935              1.077              0.488
 Vibration     4          0.965              1.018              0.439
                       Q            Log10(Q)             Ln(Q)
 Total Bot       0.116680D-10        -10.933002        -25.174168
 Total V=0       0.331047D+13         12.519889         28.828110
 Vib (Bot)       0.241397D-22        -22.617269        -52.078186
 Vib (Bot)    1  0.278658D+01          0.445072          1.024816
 Vib (Bot)    2  0.114896D+01          0.060305          0.138858
 Vib (Bot)    3  0.263645D+00         -0.578980         -1.333150
 Vib (Bot)    4  0.244681D+00         -0.611400         -1.407802
 Vib (V=0)       0.684893D+01          0.835623          1.924092
 Vib (V=0)    1  0.333108D+01          0.522586          1.203298
 Vib (V=0)    2  0.175304D+01          0.243792          0.561352
 Vib (V=0)    3  0.106525D+01          0.027452          0.063211
 Vib (V=0)    4  0.105666D+01          0.023935          0.055112
 Electronic      0.100000D+01          0.000000          0.000000
 Translational   0.178188D+08          7.250879         16.695765
 Rotational      0.271261D+05          4.433388         10.208253
 ***** Axes restored to original set *****
 -------------------------------------------------------------------
 Center     Atomic                   Forces (Hartrees/Bohr)
 Number     Number              X              Y              Z
 -------------------------------------------------------------------
      1        6           0.000080359   -0.000035732   -0.000096223
      2        6          -0.000036937    0.000003774    0.000071990
      3        8          -0.000017532   -0.000047424    0.000043327
      4        8          -0.000069494    0.000012446    0.000093809
      5        1           0.000050779   -0.000027283   -0.000065102
      6        1          -0.000010235    0.000048317   -0.000028352
      7        1           0.000003061    0.000045903   -0.000019448
 -------------------------------------------------------------------
 Cartesian Forces:  Max     0.000096223 RMS     0.000051210
 FormGI is forming the generalized inverse of G from B-inverse, IUseBI=4.

 GradGradGradGradGradGradGradGradGradGradGradGradGradGradGradGradGradGrad
 Berny optimization.
 Internal  Forces:  Max     0.000048727 RMS     0.000021594
 Search for a local minimum.
 Step number   1 out of a maximum of    2
 All quantities printed in internal units (Hartrees-Bohrs-Radians)
 Second derivative matrix not updated -- analytic derivatives used.
 The second derivative matrix:
                          R1        R2        R3        R4        R5
           R1           0.17630
           R2           0.00010   0.37521
           R3           0.00178   0.00046   0.37193
           R4           0.00179   0.00046   0.00031   0.37193
           R5           0.02743  -0.00166   0.00012   0.00011   0.86174
           R6          -0.02404  -0.00032  -0.00011  -0.00012   0.10335
           A1           0.04305  -0.00117  -0.00186  -0.00187   0.01770
           A2           0.04317  -0.00167  -0.00156  -0.00194  -0.01505
           A3           0.04315  -0.00165  -0.00194  -0.00154  -0.01503
           A4          -0.03336   0.00408   0.00419  -0.00470   0.00174
           A5          -0.03336   0.00412  -0.00470   0.00419   0.00173
           A6          -0.03191  -0.00458   0.00449   0.00449   0.00625
           A7          -0.00333  -0.00021  -0.00073  -0.00073   0.02193
           A8           0.02644   0.00078   0.00111   0.00112   0.07757
           D1           0.00000  -0.00003   0.00348  -0.00349  -0.00000
           D2           0.00236  -0.00340   0.00023   0.00322  -0.00360
           D3          -0.00236   0.00340  -0.00322  -0.00024   0.00360
           D4           0.00000   0.00000  -0.00006   0.00006   0.00000
                          R6        A1        A2        A3        A4
           R6           1.28430
           A1           0.00103   0.16371
           A2           0.00675  -0.01947   0.16037
           A3           0.00675  -0.01948  -0.01979   0.16041
           A4          -0.00348  -0.04047  -0.04001  -0.01247   0.06392
           A5          -0.00348  -0.04050  -0.01247  -0.04001   0.00361
           A6          -0.00416  -0.01257  -0.04056  -0.04057   0.00379
           A7           0.00226   0.00149   0.00217   0.00217  -0.00165
           A8          -0.02125   0.00781   0.00880   0.00880  -0.00759
           D1          -0.00000   0.00002   0.01556  -0.01558   0.01837
           D2           0.00084  -0.01642   0.00683   0.01385  -0.01996
           D3          -0.00084   0.01643  -0.01385  -0.00684   0.00068
           D4          -0.00000   0.00000   0.00033  -0.00033  -0.00009
                          A5        A6        A7        A8        D1
           A5           0.06393
           A6           0.00381   0.06285
           A7          -0.00166  -0.00116   0.14666
           A8          -0.00756  -0.00430   0.01714   0.08280
           D1          -0.01837   0.00000   0.00000  -0.00001   0.01806
           D2          -0.00068   0.01650   0.00037   0.00174  -0.00812
           D3           0.01996  -0.01649  -0.00037  -0.00174  -0.00811
           D4           0.00009  -0.00000  -0.00001   0.00000   0.00006
                          D2        D3        D4
           D2           0.01816
           D3          -0.01047   0.01816
           D4           0.00004   0.00004   0.00084
 ITU=  0
     Eigenvalues ---    0.00004   0.00085   0.06553   0.07794   0.07817
     Eigenvalues ---    0.08939   0.14900   0.18787   0.19081   0.28302
     Eigenvalues ---    0.37200   0.37244   0.37564   0.84997   1.30859
 Angle between quadratic step and forces=  87.94 degrees.
 Linear search not attempted -- first point.
 Iteration  1 RMS(Cart)=  0.00715775 RMS(Int)=  0.00003604
 Iteration  2 RMS(Cart)=  0.00005805 RMS(Int)=  0.00000008
 Iteration  3 RMS(Cart)=  0.00000000 RMS(Int)=  0.00000008
 Variable       Old X    -DE/DX   Delta X   Delta X   Delta X     New X
                                 (Linear)    (Quad)   (Total)
    R1        2.91473  -0.00005   0.00000  -0.00053  -0.00053   2.91421
    R2        2.04783  -0.00001   0.00000  -0.00002  -0.00002   2.04780
    R3        2.05099   0.00000   0.00000  -0.00000  -0.00000   2.05099
    R4        2.05098   0.00001   0.00000   0.00005   0.00005   2.05103
    R5        2.26932  -0.00005   0.00000  -0.00004  -0.00004   2.26928
    R6        2.14443  -0.00003   0.00000  -0.00003  -0.00003   2.14440
    A1        1.76978   0.00000   0.00000   0.00013   0.00013   1.76990
    A2        1.83116   0.00003   0.00000  -0.00056  -0.00056   1.83061
    A3        1.83113   0.00002   0.00000   0.00105   0.00105   1.83218
    A4        1.99534  -0.00001   0.00000  -0.00007  -0.00007   1.99528
    A5        1.99533  -0.00000   0.00000  -0.00004  -0.00004   1.99530
    A6        2.00612  -0.00003   0.00000  -0.00037  -0.00037   2.00576
    A7        3.06825  -0.00002   0.00000  -0.00018  -0.00018   3.06807
    A8        2.19140   0.00001   0.00000   0.00023   0.00023   2.19162
    D1        3.14039   0.00000   0.00000   0.01799   0.01799  -3.12481
    D2        1.05913  -0.00000   0.00000   0.01822   0.01822   1.07735
    D3       -1.06157   0.00001   0.00000   0.01840   0.01840  -1.04316
    D4       -3.14053  -0.00000   0.00000  -0.00355  -0.00355   3.13910
         Item               Value     Threshold  Converged?
 Maximum Force            0.000049     0.000450     YES
 RMS     Force            0.000022     0.000300     YES
 Maximum Displacement     0.014291     0.001800     NO 
 RMS     Displacement     0.007159     0.001200     NO 
 Predicted change in Energy=-5.236174D-08
                           ----------------------------
                           ! Non-Optimized Parameters !
                           ! (Angstroms and Degrees)  !
 --------------------------                            --------------------------
 ! Name  Definition              Value          Derivative Info.                !
 --------------------------------------------------------------------------------
 ! R1    R(1,3)                  1.5421         -DE/DX =    0.0                 !
 ! R2    R(1,5)                  1.0837         -DE/DX =    0.0                 !
 ! R3    R(1,6)                  1.0853         -DE/DX =    0.0                 !
 ! R4    R(1,7)                  1.0854         -DE/DX =    0.0                 !
 ! R5    R(2,3)                  1.2009         -DE/DX =    0.0                 !
 ! R6    R(2,4)                  1.1348         -DE/DX =    0.0                 !
 ! A1    A(3,1,5)              101.4081         -DE/DX =    0.0                 !
 ! A2    A(3,1,6)              104.886          -DE/DX =    0.0                 !
 ! A3    A(3,1,7)              104.9764         -DE/DX =    0.0                 !
 ! A4    A(5,1,6)              114.321          -DE/DX =    0.0                 !
 ! A5    A(5,1,7)              114.3221         -DE/DX =    0.0                 !
 ! A6    A(6,1,7)              114.9214         -DE/DX =    0.0                 !
 ! A7    A(3,2,4)              175.7877         -DE/DX =    0.0                 !
 ! A8    A(1,3,2)              125.5708         -DE/DX =    0.0                 !
 ! D1    D(5,1,3,2)           -179.0384         -DE/DX =    0.0                 !
 ! D2    D(6,1,3,2)             61.7277         -DE/DX =    0.0                 !
 ! D3    D(7,1,3,2)            -59.7688         -DE/DX =    0.0                 !
 ! D4    D(4,2,3,1)            179.8574         -DE/DX =    0.0                 !
 --------------------------------------------------------------------------------
 GradGradGradGradGradGradGradGradGradGradGradGradGradGradGradGradGradGrad


 ----------------------------------------------------------------------

 Electric dipole moment (input orientation):
 (Debye = 10**-18 statcoulomb cm , SI units = C m)
                  (au)            (Debye)         (10**-30 SI)
   Tot        0.129543D+01      0.329265D+01      0.109831D+02
   x         -0.537494D+00     -0.136617D+01     -0.455706D+01
   y          0.116219D+01      0.295399D+01      0.985345D+01
   z          0.196345D+00      0.499060D+00      0.166468D+01

 Dipole polarizability, Alpha (input orientation).
 (esu units = cm**3 , SI units = C**2 m**2 J**-1)
 Alpha(0;0):
               (au)            (10**-24 esu)      (10**-40 SI)
   iso        0.313574D+02      0.464668D+01      0.517013D+01
   aniso      0.261626D+02      0.387689D+01      0.431363D+01
   xx         0.235030D+02      0.348279D+01      0.387512D+01
   yx        -0.487380D+01     -0.722222D+00     -0.803581D+00
   yy         0.463873D+02      0.687389D+01      0.764824D+01
   zx         0.917859D+00      0.136013D+00      0.151335D+00
   zy        -0.583303D+01     -0.864365D+00     -0.961736D+00
   zz         0.241818D+02      0.358338D+01      0.398705D+01

 ----------------------------------------------------------------------

 Dipole orientation:
     6          3.58871335          1.78490130          2.70543824
     6          3.54547648          1.39636884         -1.89734447
     8          3.69137113          2.71384961         -0.05539312
     8          3.42217148          0.28149306         -3.72502511
     1          3.78604246          3.54550741          3.73253637
     1          5.18656248          0.51298600          2.89431441
     1          1.74953474          0.89738014          2.89578260

 Electric dipole moment (dipole orientation):
 (Debye = 10**-18 statcoulomb cm , SI units = C m)
                  (au)            (Debye)         (10**-30 SI)
   Tot        0.129543D+01      0.329265D+01      0.109831D+02
   x          0.000000D+00      0.000000D+00      0.000000D+00
   y          0.000000D+00      0.000000D+00      0.000000D+00
   z          0.129543D+01      0.329265D+01      0.109831D+02

 Dipole polarizability, Alpha (dipole orientation).
 (esu units = cm**3 , SI units = C**2 m**2 J**-1)
 Alpha(0;0):
               (au)            (10**-24 esu)      (10**-40 SI)
   iso        0.313574D+02      0.464668D+01      0.517013D+01
   aniso      0.261626D+02      0.387689D+01      0.431363D+01
   xx         0.224143D+02      0.332146D+01      0.369562D+01
   yx         0.602834D+00      0.893308D-01      0.993939D-01
   yy         0.277936D+02      0.411859D+01      0.458255D+01
   zx         0.111721D+01      0.165553D+00      0.184203D+00
   zy         0.100994D+02      0.149658D+01      0.166517D+01
   zz         0.438642D+02      0.650001D+01      0.723223D+01

 ----------------------------------------------------------------------
 Unable to Open any file for archive entry.
 1\1\GINC-NODE01\Freq\RM062X\6-31+G(d,p)\C2H3O2(1+)\GAU\02-Dec-2023\0\\
 #N Geom=AllCheck Guess=TCheck SCRF=Check GenChk RM062X/6-31+G(d,p) Fre
 q\\Title Card Required\\1,1\C,1.3264606651,2.1826359031,0.1575644795\C
 ,2.2511465852,-0.0718283788,-0.0366449753\O,2.1377439858,1.0374892886,
 -0.4823491551\O,2.4062392594,-1.1382286807,0.3189770598\H,1.4909182225
 ,2.9844976014,-0.5525763781\H,1.7865624143,2.3429876161,1.1273849587\H
 ,0.3050993577,1.8170049302,0.1903639604\\Version=ES64L-G16RevC.01\Stat
 e=1-A\HF=-228.138951\RMSD=4.306e-10\RMSF=5.121e-05\ZeroPoint=0.0509881
 \Thermal=0.0557029\ETot=-228.0832482\HTot=-228.082304\GTot=-228.115182
 \Dipole=-0.5374938,1.1621888,0.1963451\DipoleDeriv=0.5377799,-0.626181
 ,-0.1324738,-0.5242504,1.2785009,0.2402584,-0.1900089,0.4021206,0.3056
 881,0.8578507,-0.2162505,0.1269992,-0.4855209,3.4109626,-0.6685531,0.2
 788012,-1.0951106,1.0367981,-0.4647966,0.5185138,0.0469546,0.6854826,-
 2.4539397,0.1561869,-0.0471278,0.4204128,-0.4131427,-0.2414007,0.17127
 24,-0.0512052,0.2325104,-1.3898053,0.2952451,-0.0857563,0.3924072,-0.2
 981568,0.125427,0.0177174,0.048924,0.0413358,0.1085697,-0.0348998,0.03
 57175,0.0022494,0.1050013,0.0797717,0.0867366,-0.0503445,0.0737363,0.0
 485145,0.028509,0.0064857,-0.0451702,0.1190169,0.1053681,0.0481913,0.0
 111458,-0.0232938,-0.0028027,-0.0167466,0.0018886,-0.0769092,0.1447951
 \Polar=23.5029987,-4.8737986,46.3873239,0.9178593,-5.8330252,24.181830
 4\Quadrupole=-0.7031277,2.5910542,-1.8879265,-2.159054,-0.1915281,1.06
 28329\PG=C01 [X(C2H3O2)]\NImag=0\\0.54078608,0.16068843,0.41771362,0.0
 7916856,-0.12480026,0.59273648,-0.00615241,0.01055858,-0.01214696,0.16
 699094,0.01859910,-0.08235840,0.01124072,-0.24250276,1.73549771,-0.016
 68761,0.02401608,0.00285036,0.06847255,-0.52447050,0.31115298,-0.04883
 968,0.00585824,0.01826732,-0.07189459,0.08068850,-0.01152245,0.1080300
 4,0.00679061,-0.01738740,-0.02080960,0.07564931,-0.61216763,0.19683023
 ,-0.14073391,0.79567779,0.01773219,-0.01934135,-0.05244351,-0.00868091
 ,0.18885413,-0.14317395,-0.01530827,-0.19838624,0.18440519,0.00351334,
 -0.00278206,0.00205252,-0.08792396,0.15025085,-0.04828403,0.02845984,0
 .01228164,-0.00853422,0.05656349,-0.01334053,0.03018791,0.00629062,0.1
 5166278,-1.05582998,0.31847802,0.01659172,-0.10434587,0.04801227,-0.15
 976483,1.13772919,0.00800873,-0.01045583,-0.00298184,-0.04908167,0.320
 72318,-0.16801716,-0.01096309,0.05483957,0.01389776,0.05454408,-0.3691
 8501,0.15589089,-0.05977344,-0.04842262,0.03534667,-0.00188948,0.00368
 511,0.00011286,-0.00304269,0.02130364,-0.00684256,0.00022293,0.0010054
 1,-0.00050079,0.05777598,-0.03733861,-0.20884461,0.14557479,0.00156464
 ,-0.00317751,-0.00098459,0.00327211,-0.02468292,0.00879950,-0.00002784
 ,-0.00073573,0.00061102,0.03336535,0.22890382,0.02912016,0.16310569,-0
 .19212067,0.00129922,-0.00432468,-0.00014212,0.00327932,-0.01971883,0.
 00607642,0.00008558,-0.00103033,0.00071640,-0.03779893,-0.15555346,0.1
 9270281,-0.11101708,-0.02547301,-0.12825430,0.00196114,-0.00724356,0.0
 0607907,0.00000378,0.01862776,0.01943154,-0.00073240,0.00256701,-0.001
 64381,0.00430302,0.00014818,0.00558386,0.10989599,-0.01974950,-0.05238
 843,-0.02545375,-0.00173214,0.00699696,-0.00859126,0.00061637,-0.02300
 180,-0.02280451,0.00094497,-0.00290556,0.00216011,0.00978845,0.0097662
 9,0.01946664,0.01435115,0.05961532,-0.11747228,-0.03671584,-0.29503314
 ,-0.00029896,0.00232299,-0.00083560,0.00050797,-0.00654251,-0.00629523
 ,0.00006213,-0.00080654,-0.00003669,-0.00832848,-0.00375532,-0.0100644
 8,0.12381083,0.04307587,0.30538711,-0.31851680,-0.10042756,0.00556618,
 -0.00109165,-0.00347723,0.00182961,-0.01271669,0.00608094,0.00220223,-
 0.00010324,0.00127844,-0.00036344,0.00240368,-0.00098383,-0.00156921,-
 0.00441445,-0.00421929,0.00171879,0.33443916,-0.11564951,-0.08692269,0
 .00795749,0.00479959,0.01103885,-0.00527798,0.03370697,-0.01409217,-0.
 00513380,-0.00090272,-0.00409995,0.00130695,-0.02072535,-0.00122935,-0
 .00194502,-0.00297751,0.00191721,0.00242136,0.10174852,0.09338811,0.00
 013024,0.00419152,-0.05300768,0.00043674,0.00565417,-0.00183450,0.0157
 3919,-0.00621262,-0.00246667,0.00007393,-0.00175903,0.00053065,0.01801
 124,0.00530805,0.00283164,-0.02500719,-0.00785309,0.00687804,-0.009384
 14,0.00067100,0.04706853\\-0.00008036,0.00003573,0.00009622,0.00003694
 ,-0.00000377,-0.00007199,0.00001753,0.00004742,-0.00004333,0.00006949,
 -0.00001245,-0.00009381,-0.00005078,0.00002728,0.00006510,0.00001023,-
 0.00004832,0.00002835,-0.00000306,-0.00004590,0.00001945\\\@
 The archive entry for this job was punched.


 I WISH TO HAVE NO CONNECTION WITH ANY SHIP THAT DOES NOT SAIL FAST,
 FOR I INTEND TO GO IN HARM'S WAY.
     -- JOHN PAUL JONES, USN 1747-1792
 Job cpu time:       0 days  0 hours  5 minutes 59.0 seconds.
 Elapsed time:       0 days  0 hours  0 minutes  7.8 seconds.
 File lengths (MBytes):  RWF=     19 Int=      0 D2E=      0 Chk=      4 Scr=      1
 Normal termination of Gaussian 16 at Sat Dec  2 05:20:50 2023.
