 Entering Gaussian System, Link 0=/opt/soft/g16b/g16/g16
 Initial command:
 /opt/soft/g16b/g16/l1.exe "/scratch/gongke2021/co2-opt/Gau-24306.inp" -scrdir="/scratch/gongke2021/co2-opt/"
 Entering Link 1 = /opt/soft/g16b/g16/l1.exe PID=     24307.
  
 Copyright (c) 1988,1990,1992,1993,1995,1998,2003,2009,2016,
            Gaussian, Inc.  All Rights Reserved.
  
 This is part of the Gaussian(R) 16 program.  It is based on
 the Gaussian(R) 09 system (copyright 2009, Gaussian, Inc.),
 the Gaussian(R) 03 system (copyright 2003, Gaussian, Inc.),
 the Gaussian(R) 98 system (copyright 1998, Gaussian, Inc.),
 the Gaussian(R) 94 system (copyright 1995, Gaussian, Inc.),
 the Gaussian 92(TM) system (copyright 1992, Gaussian, Inc.),
 the Gaussian 90(TM) system (copyright 1990, Gaussian, Inc.),
 the Gaussian 88(TM) system (copyright 1988, Gaussian, Inc.),
 the Gaussian 86(TM) system (copyright 1986, Carnegie Mellon
 University), and the Gaussian 82(TM) system (copyright 1983,
 Carnegie Mellon University). Gaussian is a federally registered
 trademark of Gaussian, Inc.
  
 This software contains proprietary and confidential information,
 including trade secrets, belonging to Gaussian, Inc.
  
 This software is provided under written license and may be
 used, copied, transmitted, or stored only in accord with that
 written license.
  
 The following legend is applicable only to US Government
 contracts under FAR:
  
                    RESTRICTED RIGHTS LEGEND
  
 Use, reproduction and disclosure by the US Government is
 subject to restrictions as set forth in subparagraphs (a)
 and (c) of the Commercial Computer Software - Restricted
 Rights clause in FAR 52.227-19.
  
 Gaussian, Inc.
 340 Quinnipiac St., Bldg. 40, Wallingford CT 06492
  
  
 ---------------------------------------------------------------
 Warning -- This program may not be used in any manner that
 competes with the business of Gaussian, Inc. or will provide
 assistance to any competitor of Gaussian, Inc.  The licensee
 of this program is prohibited from giving any competitor of
 Gaussian, Inc. access to this program.  By using this program,
 the user acknowledges that Gaussian, Inc. is engaged in the
 business of creating and licensing software in the field of
 computational chemistry and represents and warrants to the
 licensee that it is not a competitor of Gaussian, Inc. and that
 it will not use this program in any manner prohibited above.
 ---------------------------------------------------------------
  

 Cite this work as:
 Gaussian 16, Revision A.03,
 M. J. Frisch, G. W. Trucks, H. B. Schlegel, G. E. Scuseria, 
 M. A. Robb, J. R. Cheeseman, G. Scalmani, V. Barone, 
 G. A. Petersson, H. Nakatsuji, X. Li, M. Caricato, A. V. Marenich, 
 J. Bloino, B. G. Janesko, R. Gomperts, B. Mennucci, H. P. Hratchian, 
 J. V. Ortiz, A. F. Izmaylov, J. L. Sonnenberg, D. Williams-Young, 
 F. Ding, F. Lipparini, F. Egidi, J. Goings, B. Peng, A. Petrone, 
 T. Henderson, D. Ranasinghe, V. G. Zakrzewski, J. Gao, N. Rega, 
 G. Zheng, W. Liang, M. Hada, M. Ehara, K. Toyota, R. Fukuda, 
 J. Hasegawa, M. Ishida, T. Nakajima, Y. Honda, O. Kitao, H. Nakai, 
 T. Vreven, K. Throssell, J. A. Montgomery, Jr., J. E. Peralta, 
 F. Ogliaro, M. J. Bearpark, J. J. Heyd, E. N. Brothers, K. N. Kudin, 
 V. N. Staroverov, T. A. Keith, R. Kobayashi, J. Normand, 
 K. Raghavachari, A. P. Rendell, J. C. Burant, S. S. Iyengar, 
 J. Tomasi, M. Cossi, J. M. Millam, M. Klene, C. Adamo, R. Cammi, 
 J. W. Ochterski, R. L. Martin, K. Morokuma, O. Farkas, 
 J. B. Foresman, and D. J. Fox, Gaussian, Inc., Wallingford CT, 2016.
 
 ******************************************
 Gaussian 16:  ES64L-G16RevA.03 25-Dec-2016
                 1-Jul-2023 
 ******************************************
 %mem=10GB
 %nprocshared=20
 Will use up to   20 processors via shared memory.
 -----------------------------------------------------
 # m062x/6-31+G(d,p) opt freq scrf=(SMD,solvent=water)
 -----------------------------------------------------
 1/18=20,19=15,26=3,38=1/1,3;
 2/9=110,12=2,17=6,18=5,40=1/2;
 3/5=1,6=6,7=111,11=2,25=1,30=1,70=32201,71=1,72=1,74=-55/1,2,3;
 4//1;
 5/5=2,38=5,53=1/2;
 6/7=2,8=2,9=2,10=2,28=1/1;
 7//1,2,3,16;
 1/18=20,19=15,26=3/3(2);
 2/9=110/2;
 99//99;
 2/9=110/2;
 3/5=1,6=6,7=111,11=2,25=1,30=1,70=32205,71=1,72=1,74=-55/1,2,3;
 4/5=5,16=3,69=1/1;
 5/5=2,38=5,53=1/2;
 7//1,2,3,16;
 1/18=20,19=15,26=3/3(-5);
 2/9=110/2;
 6/7=2,8=2,9=2,10=2,19=2,28=1/1;
 99/9=1/99;
 ---------
 structure
 ---------
 Symbolic Z-matrix:
 Charge =  0 Multiplicity = 1
 C                    -2.62072   1.17589  -0.26093 
 O                    -1.19574   0.85372   0.12084 
 O                    -4.04523   1.49913  -0.64352 
 

 GradGradGradGradGradGradGradGradGradGradGradGradGradGradGradGradGradGrad
 Berny optimization.
 Initialization pass.
                           ----------------------------
                           !    Initial Parameters    !
                           ! (Angstroms and Degrees)  !
 --------------------------                            --------------------------
 ! Name  Definition              Value          Derivative Info.                !
 --------------------------------------------------------------------------------
 ! R1    R(1,2)                  1.51           estimate D2E/DX2                !
 ! R2    R(1,3)                  1.51           estimate D2E/DX2                !
 ! A1    L(2,1,3,-2,-1)        180.0361         estimate D2E/DX2                !
 ! A2    L(2,1,3,-3,-2)        180.0451         estimate D2E/DX2                !
 --------------------------------------------------------------------------------
 Trust Radius=3.00D-01 FncErr=1.00D-07 GrdErr=1.00D-06 EigMax=2.50D+02 EigMin=1.00D-04
 Number of steps in this run=     20 maximum allowed number of steps=    100.
 GradGradGradGradGradGradGradGradGradGradGradGradGradGradGradGradGradGrad

                          Input orientation:                          
 ---------------------------------------------------------------------
 Center     Atomic      Atomic             Coordinates (Angstroms)
 Number     Number       Type             X           Y           Z
 ---------------------------------------------------------------------
      1          6           0       -2.620720    1.175890   -0.260926
      2          8           0       -1.195740    0.853722    0.120836
      3          8           0       -4.045230    1.499130   -0.643524
 ---------------------------------------------------------------------
                    Distance matrix (angstroms):
                    1          2          3
     1  C    0.000000
     2  O    1.510001   0.000000
     3  O    1.509998   3.019999   0.000000
 Stoichiometry    CO2
 Framework group  C*V[C*(OCO)]
 Deg. of freedom     2
 Full point group                 C*V     NOp   4
 Largest Abelian subgroup         C2V     NOp   4
 Largest concise Abelian subgroup C1      NOp   1
                         Standard orientation:                         
 ---------------------------------------------------------------------
 Center     Atomic      Atomic             Coordinates (Angstroms)
 Number     Number       Type             X           Y           Z
 ---------------------------------------------------------------------
      1          6           0        0.000000   -0.000000   -0.000001
      2          8           0       -0.000000    0.000000    1.510000
      3          8           0        0.000000   -0.000000   -1.509999
 ---------------------------------------------------------------------
 Rotational constants (GHZ):           0.0000000           6.9287009           6.9287009
 Standard basis: 6-31+G(d,p) (6D, 7F)
 There are    30 symmetry adapted cartesian basis functions of A1  symmetry.
 There are     3 symmetry adapted cartesian basis functions of A2  symmetry.
 There are    12 symmetry adapted cartesian basis functions of B1  symmetry.
 There are    12 symmetry adapted cartesian basis functions of B2  symmetry.
 There are    30 symmetry adapted basis functions of A1  symmetry.
 There are     3 symmetry adapted basis functions of A2  symmetry.
 There are    12 symmetry adapted basis functions of B1  symmetry.
 There are    12 symmetry adapted basis functions of B2  symmetry.
    57 basis functions,    96 primitive gaussians,    57 cartesian basis functions
    11 alpha electrons       11 beta electrons
       nuclear repulsion energy        44.8574281992 Hartrees.
 NAtoms=    3 NActive=    3 NUniq=    3 SFac= 1.00D+00 NAtFMM=   60 NAOKFM=F Big=F
 Integral buffers will be    131072 words long.
 Raffenetti 2 integral format.
 Two-electron integral symmetry is turned on.
 ------------------------------------------------------------------------------
 Polarizable Continuum Model (PCM)
 =================================
 Model                : PCM.
 Atomic radii         : SMD-Coulomb.
 Polarization charges : Total charges.
 Charge compensation  : None.
 Solution method      : On-the-fly selection.
 Cavity type          : VdW (van der Waals Surface) (Alpha=1.000).
 Cavity algorithm     : GePol (No added spheres)
                        Default sphere list used, NSphG=    3.
                        Lebedev-Laikov grids with approx.  5.0 points / Ang**2.
                        Smoothing algorithm: York/Karplus (Gamma=1.0000).
                        Polarization charges: spherical gaussians, with
                                              point-specific exponents (IZeta= 3).
                        Self-potential: point-specific (ISelfS= 7).
                        Self-field    : sphere-specific E.n sum rule (ISelfD= 2).
 1st derivatives      : Analytical E(r).r(x)/FMM algorithm (CHGder, D1EAlg=3).
                        Cavity 1st derivative terms included.
 Solvent              : Water, Eps=  78.355300 Eps(inf)=   1.777849
 ------------------------------------------------------------------------------
 Spheres list:
 ISph  on   Nord     Re0    Alpha      Xe            Ye            Ze
    1   C      1    1.8500  1.000      0.000000     -0.000000     -0.000001
    2   O      2    1.5200  1.000     -0.000000      0.000000      1.510000
    3   O      3    1.5200  1.000      0.000000     -0.000000     -1.509999
 ------------------------------------------------------------------------------
 ------------------------------------------------------------------------------
 Atomic radii for non-electrostatic terms: SMD-CDS.
 ------------------------------------------------------------------------------
 Nuclear repulsion after PCM non-electrostatic terms =       44.8628532391 Hartrees.
 One-electron integrals computed using PRISM.
 NBasis=    57 RedAO= T EigKep=  5.04D-03  NBF=    30     3    12    12
 NBsUse=    57 1.00D-06 EigRej= -1.00D+00 NBFU=    30     3    12    12
 ExpMin= 4.38D-02 ExpMax= 5.48D+03 ExpMxC= 8.25D+02 IAcc=3 IRadAn=         5 AccDes= 0.00D+00
 Harris functional with IExCor= 1009 and IRadAn=       5 diagonalized for initial guess.
 HarFok:  IExCor= 1009 AccDes= 0.00D+00 IRadAn=         5 IDoV= 1 UseB2=F ITyADJ=14
 ICtDFT=  3500011 ScaDFX=  1.000000  1.000000  1.000000  1.000000
 FoFCou: FMM=F IPFlag=           0 FMFlag=      100000 FMFlg1=           0
         NFxFlg=           0 DoJE=T BraDBF=F KetDBF=T FulRan=T
         wScrn=  0.000000 ICntrl=       500 IOpCl=  0 I1Cent=   200000004 NGrid=           0
         NMat0=    1 NMatS0=      1 NMatT0=    0 NMatD0=    1 NMtDS0=    0 NMtDT0=    0
 Petite list used in FoFCou.
 Initial guess orbital symmetries:
       Occupied  (SG) (SG) (SG) (SG) (SG) (SG) (SG) (PI) (PI) (PI)
                 (PI)
       Virtual   (SG) (PI) (PI) (SG) (SG) (PI) (PI) (SG) (PI) (PI)
                 (SG) (PI) (PI) (SG) (SG) (SG) (PI) (PI) (SG) (SG)
                 (PI) (PI) (SG) (PI) (PI) (SG) (PI) (PI) (SG) (DLTA)
                 (DLTA) (SG) (DLTA) (DLTA) (DLTA) (DLTA) (PI) (PI)
                 (SG) (PI) (PI) (SG) (SG) (SG) (SG) (SG)
 The electronic state of the initial guess is 1-SG.
 Keep R1 ints in memory in symmetry-blocked form, NReq=18979194.
 Requested convergence on RMS density matrix=1.00D-08 within 128 cycles.
 Requested convergence on MAX density matrix=1.00D-06.
 Requested convergence on             energy=1.00D-06.
 No special actions if energy rises.
 Inv3:  Mode=1 IEnd=      475212.
 Iteration    1 A*A^-1 deviation from unit magnitude is 5.11D-15 for     65.
 Iteration    1 A*A^-1 deviation from orthogonality  is 2.71D-15 for    224    171.
 Iteration    1 A^-1*A deviation from unit magnitude is 3.55D-15 for     65.
 Iteration    1 A^-1*A deviation from orthogonality  is 1.04D-15 for    306    274.
 Error on total polarization charges =  0.02909
 SCF Done:  E(RM062X) =  -188.266618373     A.U. after   10 cycles
            NFock= 10  Conv=0.98D-08     -V/T= 2.0157
 SMD-CDS (non-electrostatic) energy       (kcal/mol) =       3.40
 (included in total energy above)

 **********************************************************************

            Population analysis using the SCF density.

 **********************************************************************

 Orbital symmetries:
       Occupied  (SG) (SG) (SG) (SG) (SG) (SG) (SG) (PI) (PI) (PI)
                 (PI)
       Virtual   (PI) (PI) (SG) (SG) (SG) (PI) (PI) (SG) (PI) (PI)
                 (SG) (PI) (PI) (SG) (SG) (SG) (PI) (PI) (SG) (SG)
                 (PI) (PI) (SG) (PI) (PI) (SG) (PI) (PI) (SG) (DLTA)
                 (DLTA) (SG) (DLTA) (DLTA) (SG) (DLTA) (DLTA) (PI)
                 (PI) (PI) (PI) (SG) (SG) (SG) (SG) (SG)
 The electronic state is 1-SG.
 Alpha  occ. eigenvalues --  -19.78236 -19.78234 -10.86324  -1.15501  -1.12648
 Alpha  occ. eigenvalues --   -0.70338  -0.55770  -0.50665  -0.50665  -0.43374
 Alpha  occ. eigenvalues --   -0.43374
 Alpha virt. eigenvalues --   -0.09199  -0.09199  -0.08314   0.04821   0.05323
 Alpha virt. eigenvalues --    0.07053   0.07053   0.17530   0.20603   0.20603
 Alpha virt. eigenvalues --    0.22461   0.27589   0.27589   0.30226   0.30252
 Alpha virt. eigenvalues --    0.35735   0.66258   0.66258   0.92220   0.99981
 Alpha virt. eigenvalues --    1.10456   1.10456   1.21564   1.27075   1.27075
 Alpha virt. eigenvalues --    1.32266   1.41328   1.41328   1.47827   1.54461
 Alpha virt. eigenvalues --    1.54461   1.72762   1.80125   1.80126   1.85030
 Alpha virt. eigenvalues --    1.87170   1.87171   1.90004   1.90004   2.41541
 Alpha virt. eigenvalues --    2.41541   2.59415   2.96085   3.96034   4.21712
 Alpha virt. eigenvalues --    4.28391
          Condensed to atoms (all electrons):
               1          2          3
     1  C    4.670598   0.311470   0.311471
     2  O    0.311470   8.079611  -0.037849
     3  O    0.311471  -0.037849   8.079608
 Mulliken charges:
               1
     1  C    0.706461
     2  O   -0.353231
     3  O   -0.353230
 Sum of Mulliken charges =   0.00000
 Mulliken charges with hydrogens summed into heavy atoms:
               1
     1  C    0.706461
     2  O   -0.353231
     3  O   -0.353230
 Electronic spatial extent (au):  <R**2>=            170.7913
 Charge=              0.0000 electrons
 Dipole moment (field-independent basis, Debye):
    X=              0.0000    Y=             -0.0000    Z=             -0.0000  Tot=              0.0000
 Quadrupole moment (field-independent basis, Debye-Ang):
   XX=            -16.3506   YY=            -16.3506   ZZ=            -21.7906
   XY=             -0.0000   XZ=              0.0000   YZ=             -0.0000
 Traceless Quadrupole moment (field-independent basis, Debye-Ang):
   XX=              1.8133   YY=              1.8133   ZZ=             -3.6267
   XY=             -0.0000   XZ=              0.0000   YZ=             -0.0000
 Octapole moment (field-independent basis, Debye-Ang**2):
  XXX=              0.0000  YYY=              0.0000  ZZZ=             -0.0000  XYY=              0.0000
  XXY=              0.0000  XXZ=             -0.0000  XZZ=              0.0000  YZZ=              0.0000
  YYZ=             -0.0000  XYZ=             -0.0000
 Hexadecapole moment (field-independent basis, Debye-Ang**3):
 XXXX=            -14.5759 YYYY=            -14.5759 ZZZZ=           -167.4250 XXXY=             -0.0000
 XXXZ=              0.0000 YYYX=             -0.0000 YYYZ=             -0.0000 ZZZX=              0.0000
 ZZZY=             -0.0000 XXYY=             -4.8586 XXZZ=            -31.7818 YYZZ=            -31.7818
 XXYZ=             -0.0000 YYXZ=              0.0000 ZZXY=             -0.0000
 N-N= 4.486285323913D+01 E-N=-5.309379951737D+02  KE= 1.853559057933D+02
 Symmetry A1   KE= 1.684891751110D+02
 Symmetry A2   KE= 4.219726908880D-33
 Symmetry B1   KE= 8.433365341167D+00
 Symmetry B2   KE= 8.433365341167D+00
 D1PCM: PCM CHGder 1st derivatives, ID1Alg=3 FixD1E=F DoIter=F DoCFld=F I1PDM=0.
 Calling FoFJK, ICntrl=      2127 FMM=F ISym2X=1 I1Cent= 0 IOpClX= 0 NMat=1 NMatS=1 NMatT=0.
 ***** Axes restored to original set *****
 -------------------------------------------------------------------
 Center     Atomic                   Forces (Hartrees/Bohr)
 Number     Number              X              Y              Z
 -------------------------------------------------------------------
      1        6          -0.000000941    0.000000213   -0.000000252
      2        8          -0.235897082    0.053430566   -0.063278093
      3        8           0.235898023   -0.053430779    0.063278346
 -------------------------------------------------------------------
 Cartesian Forces:  Max     0.235898023 RMS     0.117857376

 GradGradGradGradGradGradGradGradGradGradGradGradGradGradGradGradGradGrad
 Berny optimization.
 FormGI is forming the generalized inverse of G from B-inverse, IUseBI=4.
 Internal  Forces:  Max     0.250013749 RMS     0.176786064
 Search for a local minimum.
 Step number   1 out of a maximum of   20
 All quantities printed in internal units (Hartrees-Bohrs-Radians)
 Mixed Optimization -- RFO/linear search
 Second derivative matrix not updated -- first step.
 The second derivative matrix:
                          R1        R2        A1        A2
           R1           0.31350
           R2           0.00000   0.31351
           A1           0.00000   0.00000   0.00237
           A2           0.00000   0.00000   0.00000   0.00237
 ITU=  0
     Eigenvalues ---    0.00237   0.00237   0.31350   0.31351
 RFO step:  Lambda=-2.30009086D-01 EMin= 2.36719523D-03
 Linear search not attempted -- first point.
 Maximum step size (   0.300) exceeded in Quadratic search.
    -- Step size scaled by   0.461
 Iteration  1 RMS(Cart)=  0.14142136 RMS(Int)=  0.00857864
 SLEqS3 Cycle:    91 Max:0.442724E-03 RMS:0.252314E-03 Conv:0.114472E-07
 SLEqS3 Cycle:    91 Max:0.101022E-01 RMS:0.504527E-02 Conv:0.114472E-07
 Iteration  2 RMS(Cart)=  0.00101076 RMS(Int)=  0.00756788
 SLEqS3 Cycle:    91 Max:0.100726E-01 RMS:0.503236E-02 Conv:0.100984E-07
 Iteration  3 RMS(Cart)=  0.00756788 RMS(Int)=  0.00000001
 SLEqS3 Cycle:    91 Max:0.258890E-11 RMS:0.124150E-11 Conv:0.113746E-13
 SLEqS3 Cycle:    91 Max:0.444632E-08 RMS:0.208919E-08 Conv:0.113746E-13
 Iteration  4 RMS(Cart)=  0.00000000 RMS(Int)=  0.00000001
 ClnCor:  largest displacement from symmetrization is 3.06D-09 for atom     1.
 Variable       Old X    -DE/DX   Delta X   Delta X   Delta X     New X
                                 (Linear)    (Quad)   (Total)
    R1        2.85349  -0.25001   0.00000  -0.21213  -0.21213   2.64136
    R2        2.85348  -0.25001   0.00000  -0.21213  -0.21213   2.64135
    A1        3.14159   0.00000   0.00000   0.00000   0.00000   3.14159
    A2        3.14159   0.00000   0.00000   0.00000   0.00000   3.14159
         Item               Value     Threshold  Converged?
 Maximum Force            0.250014     0.000450     NO 
 RMS     Force            0.176786     0.000300     NO 
 Maximum Displacement     0.200155     0.001800     NO 
 RMS     Displacement     0.150000     0.001200     NO 
 Predicted change in Energy=-9.196390D-02
 GradGradGradGradGradGradGradGradGradGradGradGradGradGradGradGradGradGrad

                          Input orientation:                          
 ---------------------------------------------------------------------
 Center     Atomic      Atomic             Coordinates (Angstroms)
 Number     Number       Type             X           Y           Z
 ---------------------------------------------------------------------
      1          6           0       -2.620550    1.176280   -0.261230
      2          8           0       -1.301721    0.877566    0.092538
      3          8           0       -3.939376    1.474993   -0.614998
 ---------------------------------------------------------------------
                    Distance matrix (angstroms):
                    1          2          3
     1  C    0.000000
     2  O    1.397745   0.000000
     3  O    1.397742   2.795488   0.000000
 Stoichiometry    CO2
 Framework group  C*V[C*(OCO)]
 Deg. of freedom     2
 Full point group                 C*V     NOp   4
 Largest Abelian subgroup         C2V     NOp   4
 Largest concise Abelian subgroup C1      NOp   1
                         Standard orientation:                         
 ---------------------------------------------------------------------
 Center     Atomic      Atomic             Coordinates (Angstroms)
 Number     Number       Type             X           Y           Z
 ---------------------------------------------------------------------
      1          6           0        0.000000    0.000000   -0.000001
      2          8           0       -0.000000    0.000000    1.397744
      3          8           0        0.000000    0.000000   -1.397743
 ---------------------------------------------------------------------
 Rotational constants (GHZ):           0.0000000           8.0863050           8.0863050
 Standard basis: 6-31+G(d,p) (6D, 7F)
 There are    30 symmetry adapted cartesian basis functions of A1  symmetry.
 There are     3 symmetry adapted cartesian basis functions of A2  symmetry.
 There are    12 symmetry adapted cartesian basis functions of B1  symmetry.
 There are    12 symmetry adapted cartesian basis functions of B2  symmetry.
 There are    30 symmetry adapted basis functions of A1  symmetry.
 There are     3 symmetry adapted basis functions of A2  symmetry.
 There are    12 symmetry adapted basis functions of B1  symmetry.
 There are    12 symmetry adapted basis functions of B2  symmetry.
    57 basis functions,    96 primitive gaussians,    57 cartesian basis functions
    11 alpha electrons       11 beta electrons
       nuclear repulsion energy        48.4600127472 Hartrees.
 NAtoms=    3 NActive=    3 NUniq=    3 SFac= 1.00D+00 NAtFMM=   60 NAOKFM=F Big=F
 Integral buffers will be    131072 words long.
 Raffenetti 2 integral format.
 Two-electron integral symmetry is turned on.
 ------------------------------------------------------------------------------
 Polarizable Continuum Model (PCM)
 =================================
 Model                : PCM.
 Atomic radii         : SMD-Coulomb.
 Polarization charges : Total charges.
 Charge compensation  : None.
 Solution method      : On-the-fly selection.
 Cavity type          : VdW (van der Waals Surface) (Alpha=1.000).
 Cavity algorithm     : GePol (No added spheres)
                        Default sphere list used, NSphG=    3.
                        Lebedev-Laikov grids with approx.  5.0 points / Ang**2.
                        Smoothing algorithm: York/Karplus (Gamma=1.0000).
                        Polarization charges: spherical gaussians, with
                                              point-specific exponents (IZeta= 3).
                        Self-potential: point-specific (ISelfS= 7).
                        Self-field    : sphere-specific E.n sum rule (ISelfD= 2).
 1st derivatives      : Analytical E(r).r(x)/FMM algorithm (CHGder, D1EAlg=3).
                        Cavity 1st derivative terms included.
 Solvent              : Water, Eps=  78.355300 Eps(inf)=   1.777849
 ------------------------------------------------------------------------------
 Spheres list:
 ISph  on   Nord     Re0    Alpha      Xe            Ye            Ze
    1   C      1    1.8500  1.000     -0.000000      0.000000     -0.000001
    2   O      2    1.5200  1.000     -0.000000      0.000000      1.397744
    3   O      3    1.5200  1.000      0.000000      0.000000     -1.397743
 ------------------------------------------------------------------------------
 ------------------------------------------------------------------------------
 Atomic radii for non-electrostatic terms: SMD-CDS.
 ------------------------------------------------------------------------------
 Nuclear repulsion after PCM non-electrostatic terms =       48.4655172759 Hartrees.
 One-electron integrals computed using PRISM.
 NBasis=    57 RedAO= T EigKep=  2.91D-03  NBF=    30     3    12    12
 NBsUse=    57 1.00D-06 EigRej= -1.00D+00 NBFU=    30     3    12    12
 Initial guess from the checkpoint file:  "/scratch/gongke2021/co2-opt/Gau-24307.chk"
 B after Tr=     0.000000    0.000000    0.000000
         Rot=    1.000000   -0.000000    0.000000    0.000000 Ang=   0.00 deg.
 Initial guess orbital symmetries:
       Occupied  (SG) (SG) (SG) (SG) (SG) (SG) (SG) (PI) (PI) (PI)
                 (PI)
       Virtual   (PI) (PI) (SG) (SG) (SG) (PI) (PI) (SG) (PI) (PI)
                 (SG) (PI) (PI) (SG) (SG) (SG) (PI) (PI) (SG) (SG)
                 (PI) (PI) (SG) (PI) (PI) (SG) (PI) (PI) (SG) (DLTA)
                 (DLTA) (SG) (DLTA) (DLTA) (SG) (DLTA) (DLTA) (PI)
                 (PI) (PI) (PI) (SG) (SG) (SG) (SG) (SG)
 ExpMin= 4.38D-02 ExpMax= 5.48D+03 ExpMxC= 8.25D+02 IAcc=2 IRadAn=         4 AccDes= 0.00D+00
 Harris functional with IExCor= 1009 and IRadAn=       4 diagonalized for initial guess.
 HarFok:  IExCor= 1009 AccDes= 0.00D+00 IRadAn=         4 IDoV= 1 UseB2=F ITyADJ=14
 ICtDFT=  3500011 ScaDFX=  1.000000  1.000000  1.000000  1.000000
 FoFCou: FMM=F IPFlag=           0 FMFlag=      100000 FMFlg1=           0
         NFxFlg=           0 DoJE=T BraDBF=F KetDBF=T FulRan=T
         wScrn=  0.000000 ICntrl=       500 IOpCl=  0 I1Cent=   200000004 NGrid=           0
         NMat0=    1 NMatS0=      1 NMatT0=    0 NMatD0=    1 NMtDS0=    0 NMtDT0=    0
 Petite list used in FoFCou.
 Keep R1 ints in memory in symmetry-blocked form, NReq=18979194.
 Requested convergence on RMS density matrix=1.00D-08 within 128 cycles.
 Requested convergence on MAX density matrix=1.00D-06.
 Requested convergence on             energy=1.00D-06.
 No special actions if energy rises.
 Inv3:  Mode=1 IEnd=      475212.
 Iteration    1 A*A^-1 deviation from unit magnitude is 3.55D-15 for     98.
 Iteration    1 A*A^-1 deviation from orthogonality  is 3.16D-15 for    237     73.
 Iteration    1 A^-1*A deviation from unit magnitude is 3.11D-15 for     98.
 Iteration    1 A^-1*A deviation from orthogonality  is 1.36D-15 for    204    127.
 Error on total polarization charges =  0.02725
 SCF Done:  E(RM062X) =  -188.372622865     A.U. after   10 cycles
            NFock= 10  Conv=0.73D-08     -V/T= 2.0150
 SMD-CDS (non-electrostatic) energy       (kcal/mol) =       3.45
 (included in total energy above)
 D1PCM: PCM CHGder 1st derivatives, ID1Alg=3 FixD1E=F DoIter=F DoCFld=F I1PDM=0.
 Calling FoFJK, ICntrl=      2127 FMM=F ISym2X=1 I1Cent= 0 IOpClX= 0 NMat=1 NMatS=1 NMatT=0.
 ***** Axes restored to original set *****
 -------------------------------------------------------------------
 Center     Atomic                   Forces (Hartrees/Bohr)
 Number     Number              X              Y              Z
 -------------------------------------------------------------------
      1        6           0.000000416   -0.000000094    0.000000112
      2        8          -0.224337242    0.050812268   -0.060177230
      3        8           0.224336825   -0.050812174    0.060177118
 -------------------------------------------------------------------
 Cartesian Forces:  Max     0.224337242 RMS     0.112081596

 GradGradGradGradGradGradGradGradGradGradGradGradGradGradGradGradGradGrad
 Berny optimization.
 Using GEDIIS/GDIIS optimizer.
 Internal  Forces:  Max     0.237761190 RMS     0.168122394
 Search for a local minimum.
 Step number   2 out of a maximum of   20
 All quantities printed in internal units (Hartrees-Bohrs-Radians)
 Mixed Optimization -- RFO/linear search
 Update second derivatives using D2CorX and points    1    2
 DE= -1.06D-01 DEPred=-9.20D-02 R= 1.15D+00
 TightC=F SS=  1.41D+00  RLast= 3.00D-01 DXNew= 5.0454D-01 9.0000D-01
 Trust test= 1.15D+00 RLast= 3.00D-01 DXMaxT set to 5.05D-01
 The second derivative matrix:
                          R1        R2        A1        A2
           R1           0.18563
           R2          -0.12787   0.18564
           A1          -0.00000  -0.00000   0.00237
           A2           0.00000   0.00000   0.00000   0.00237
 ITU=  1  0
 Use linear search instead of GDIIS.
     Eigenvalues ---    0.00237   0.00237   0.05776   0.31351
 RFO step:  Lambda=-3.08603758D-01 EMin= 2.36719523D-03
 Skip linear search -- no minimum in search direction.
 Maximum step size (   0.505) exceeded in Quadratic search.
    -- Step size scaled by   0.550
 Iteration  1 RMS(Cart)=  0.14142136 RMS(Int)=  0.11084757
 SLEqS3 Cycle:    91 Max:0.112800E-05 RMS:0.548118E-06 Conv:0.147913E-06
 SLEqS3 Cycle:    91 Max:0.118243E-03 RMS:0.574565E-04 Conv:0.147913E-06
 Iteration  2 RMS(Cart)=  0.11084757 RMS(Int)=  0.00000000
 Iteration  3 RMS(Cart)=  0.00000000 RMS(Int)=  0.00000000
 ClnCor:  largest displacement from symmetrization is 4.78D-10 for atom     1.
 Variable       Old X    -DE/DX   Delta X   Delta X   Delta X     New X
                                 (Linear)    (Quad)   (Total)
    R1        2.64136  -0.23776   0.00000  -0.35676  -0.35676   2.28459
    R2        2.64135  -0.23776   0.00000  -0.35676  -0.35676   2.28459
    A1        3.14159  -0.00000   0.00000  -0.00000   0.00000   3.14159
    A2        3.14159  -0.00000   0.00000   0.00000   0.00000   3.14159
         Item               Value     Threshold  Converged?
 Maximum Force            0.237761     0.000450     NO 
 RMS     Force            0.168122     0.000300     NO 
 Maximum Displacement     0.336620     0.001800     NO 
 RMS     Displacement     0.252269     0.001200     NO 
 Predicted change in Energy=-1.622969D-01
 GradGradGradGradGradGradGradGradGradGradGradGradGradGradGradGradGradGrad

                          Input orientation:                          
 ---------------------------------------------------------------------
 Center     Atomic      Atomic             Coordinates (Angstroms)
 Number     Number       Type             X           Y           Z
 ---------------------------------------------------------------------
      1          6           0       -2.620549    1.176280   -0.261230
      2          8           0       -1.479853    0.917913    0.044755
      3          8           0       -3.761245    1.434647   -0.567215
 ---------------------------------------------------------------------
                    Distance matrix (angstroms):
                    1          2          3
     1  C    0.000000
     2  O    1.208954   0.000000
     3  O    1.208953   2.417907   0.000000
 Stoichiometry    CO2
 Framework group  C*V[C*(OCO)]
 Deg. of freedom     2
 Full point group                 C*V     NOp   4
 Largest Abelian subgroup         C2V     NOp   4
 Largest concise Abelian subgroup C1      NOp   1
                         Standard orientation:                         
 ---------------------------------------------------------------------
 Center     Atomic      Atomic             Coordinates (Angstroms)
 Number     Number       Type             X           Y           Z
 ---------------------------------------------------------------------
      1          6           0        0.000000   -0.000000   -0.000000
      2          8           0       -0.000000    0.000000    1.208953
      3          8           0        0.000000   -0.000000   -1.208953
 ---------------------------------------------------------------------
 Rotational constants (GHZ):           0.0000000          10.8090155          10.8090155
 Standard basis: 6-31+G(d,p) (6D, 7F)
 There are    30 symmetry adapted cartesian basis functions of A1  symmetry.
 There are     3 symmetry adapted cartesian basis functions of A2  symmetry.
 There are    12 symmetry adapted cartesian basis functions of B1  symmetry.
 There are    12 symmetry adapted cartesian basis functions of B2  symmetry.
 There are    30 symmetry adapted basis functions of A1  symmetry.
 There are     3 symmetry adapted basis functions of A2  symmetry.
 There are    12 symmetry adapted basis functions of B1  symmetry.
 There are    12 symmetry adapted basis functions of B2  symmetry.
    57 basis functions,    96 primitive gaussians,    57 cartesian basis functions
    11 alpha electrons       11 beta electrons
       nuclear repulsion energy        56.0275373548 Hartrees.
 NAtoms=    3 NActive=    3 NUniq=    3 SFac= 1.00D+00 NAtFMM=   60 NAOKFM=F Big=F
 Integral buffers will be    131072 words long.
 Raffenetti 2 integral format.
 Two-electron integral symmetry is turned on.
 ------------------------------------------------------------------------------
 Polarizable Continuum Model (PCM)
 =================================
 Model                : PCM.
 Atomic radii         : SMD-Coulomb.
 Polarization charges : Total charges.
 Charge compensation  : None.
 Solution method      : On-the-fly selection.
 Cavity type          : VdW (van der Waals Surface) (Alpha=1.000).
 Cavity algorithm     : GePol (No added spheres)
                        Default sphere list used, NSphG=    3.
                        Lebedev-Laikov grids with approx.  5.0 points / Ang**2.
                        Smoothing algorithm: York/Karplus (Gamma=1.0000).
                        Polarization charges: spherical gaussians, with
                                              point-specific exponents (IZeta= 3).
                        Self-potential: point-specific (ISelfS= 7).
                        Self-field    : sphere-specific E.n sum rule (ISelfD= 2).
 1st derivatives      : Analytical E(r).r(x)/FMM algorithm (CHGder, D1EAlg=3).
                        Cavity 1st derivative terms included.
 Solvent              : Water, Eps=  78.355300 Eps(inf)=   1.777849
 ------------------------------------------------------------------------------
 Spheres list:
 ISph  on   Nord     Re0    Alpha      Xe            Ye            Ze
    1   C      1    1.8500  1.000      0.000000      0.000000     -0.000000
    2   O      2    1.5200  1.000     -0.000000      0.000000      1.208953
    3   O      3    1.5200  1.000      0.000000     -0.000000     -1.208953
 ------------------------------------------------------------------------------
 ------------------------------------------------------------------------------
 Atomic radii for non-electrostatic terms: SMD-CDS.
 ------------------------------------------------------------------------------
 Nuclear repulsion after PCM non-electrostatic terms =       56.0362054021 Hartrees.
 One-electron integrals computed using PRISM.
 NBasis=    57 RedAO= T EigKep=  1.21D-03  NBF=    30     3    12    12
 NBsUse=    57 1.00D-06 EigRej= -1.00D+00 NBFU=    30     3    12    12
 Initial guess from the checkpoint file:  "/scratch/gongke2021/co2-opt/Gau-24307.chk"
 B after Tr=    -0.000000   -0.000000    0.000000
         Rot=    1.000000    0.000000    0.000000    0.000000 Ang=   0.00 deg.
 Initial guess orbital symmetries:
       Occupied  (SG) (SG) (SG) (SG) (SG) (SG) (SG) (PI) (PI) (PI)
                 (PI)
       Virtual   (PI) (PI) (SG) (SG) (PI) (PI) (SG) (SG) (PI) (PI)
                 (SG) (PI) (PI) (SG) (SG) (SG) (PI) (PI) (SG) (SG)
                 (PI) (PI) (SG) (PI) (PI) (SG) (PI) (PI) (SG) (DLTA)
                 (DLTA) (DLTA) (DLTA) (SG) (DLTA) (DLTA) (PI) (PI)
                 (SG) (PI) (PI) (SG) (SG) (SG) (SG) (SG)
 ExpMin= 4.38D-02 ExpMax= 5.48D+03 ExpMxC= 8.25D+02 IAcc=2 IRadAn=         4 AccDes= 0.00D+00
 Harris functional with IExCor= 1009 and IRadAn=       4 diagonalized for initial guess.
 HarFok:  IExCor= 1009 AccDes= 0.00D+00 IRadAn=         4 IDoV= 1 UseB2=F ITyADJ=14
 ICtDFT=  3500011 ScaDFX=  1.000000  1.000000  1.000000  1.000000
 FoFCou: FMM=F IPFlag=           0 FMFlag=      100000 FMFlg1=           0
         NFxFlg=           0 DoJE=T BraDBF=F KetDBF=T FulRan=T
         wScrn=  0.000000 ICntrl=       500 IOpCl=  0 I1Cent=   200000004 NGrid=           0
         NMat0=    1 NMatS0=      1 NMatT0=    0 NMatD0=    1 NMtDS0=    0 NMtDT0=    0
 Petite list used in FoFCou.
 Keep R1 ints in memory in symmetry-blocked form, NReq=18979194.
 Requested convergence on RMS density matrix=1.00D-08 within 128 cycles.
 Requested convergence on MAX density matrix=1.00D-06.
 Requested convergence on             energy=1.00D-06.
 No special actions if energy rises.
 Inv3:  Mode=1 IEnd=      456300.
 Iteration    1 A*A^-1 deviation from unit magnitude is 3.55D-15 for     73.
 Iteration    1 A*A^-1 deviation from orthogonality  is 1.25D-15 for     86     58.
 Iteration    1 A^-1*A deviation from unit magnitude is 3.11D-15 for     73.
 Iteration    1 A^-1*A deviation from orthogonality  is 1.17D-15 for    354    145.
 Error on total polarization charges =  0.02374
 SCF Done:  E(RM062X) =  -188.504407166     A.U. after   10 cycles
            NFock= 10  Conv=0.76D-08     -V/T= 2.0104
 SMD-CDS (non-electrostatic) energy       (kcal/mol) =       5.44
 (included in total energy above)
 D1PCM: PCM CHGder 1st derivatives, ID1Alg=3 FixD1E=F DoIter=F DoCFld=F I1PDM=0.
 Calling FoFJK, ICntrl=      2127 FMM=F ISym2X=1 I1Cent= 0 IOpClX= 0 NMat=1 NMatS=1 NMatT=0.
 ***** Axes restored to original set *****
 -------------------------------------------------------------------
 Center     Atomic                   Forces (Hartrees/Bohr)
 Number     Number              X              Y              Z
 -------------------------------------------------------------------
      1        6           0.000000306   -0.000000069    0.000000082
      2        8          -0.083854704    0.018993047   -0.022493562
      3        8           0.083854398   -0.018992977    0.022493480
 -------------------------------------------------------------------
 Cartesian Forces:  Max     0.083854704 RMS     0.041894785

 GradGradGradGradGradGradGradGradGradGradGradGradGradGradGradGradGradGrad
 Berny optimization.
 Using GEDIIS/GDIIS optimizer.
 Internal  Forces:  Max     0.088872423 RMS     0.062842178
 Search for a local minimum.
 Step number   3 out of a maximum of   20
 All quantities printed in internal units (Hartrees-Bohrs-Radians)
 Mixed Optimization -- RFO/linear search
 Update second derivatives using D2CorX and points    2    3
 DE= -1.32D-01 DEPred=-1.62D-01 R= 8.12D-01
 TightC=F SS=  1.41D+00  RLast= 5.05D-01 DXNew= 8.4853D-01 1.5136D+00
 Trust test= 8.12D-01 RLast= 5.05D-01 DXMaxT set to 8.49D-01
 The second derivative matrix:
                          R1        R2        A1        A2
           R1           0.36542
           R2           0.05191   0.36542
           A1           0.00000   0.00000   0.00237
           A2           0.00000   0.00000   0.00000   0.00237
 ITU=  1  1  0
 Use linear search instead of GDIIS.
     Eigenvalues ---    0.00237   0.00237   0.31351   0.41733
 RFO step:  Lambda= 0.00000000D+00 EMin= 2.36719523D-03
 Quartic linear search produced a step of  0.25581.
 Iteration  1 RMS(Cart)=  0.06453313 RMS(Int)=  0.00000005
 SLEqS3 Cycle:    91 Max:0.697003E-07 RMS:0.351402E-07 Conv:0.712248E-13
 SLEqS3 Cycle:    91 Max:0.699841E-07 RMS:0.353279E-07 Conv:0.712248E-13
 Iteration  2 RMS(Cart)=  0.00000000 RMS(Int)=  0.00000005
 ClnCor:  largest displacement from symmetrization is 6.43D-08 for atom     1.
 Variable       Old X    -DE/DX   Delta X   Delta X   Delta X     New X
                                 (Linear)    (Quad)   (Total)
    R1        2.28459  -0.08887  -0.09126   0.00000  -0.09126   2.19333
    R2        2.28459  -0.08887  -0.09126  -0.00000  -0.09126   2.19333
    A1        3.14159  -0.00000   0.00000   0.00000   0.00000   3.14159
    A2        3.14159   0.00000   0.00000   0.00000   0.00000   3.14159
         Item               Value     Threshold  Converged?
 Maximum Force            0.088872     0.000450     NO 
 RMS     Force            0.062842     0.000300     NO 
 Maximum Displacement     0.086111     0.001800     NO 
 RMS     Displacement     0.064533     0.001200     NO 
 Predicted change in Energy=-1.274562D-02
 GradGradGradGradGradGradGradGradGradGradGradGradGradGradGradGradGradGrad

                          Input orientation:                          
 ---------------------------------------------------------------------
 Center     Atomic      Atomic             Coordinates (Angstroms)
 Number     Number       Type             X           Y           Z
 ---------------------------------------------------------------------
      1          6           0       -2.620549    1.176280   -0.261230
      2          8           0       -1.525421    0.928234    0.032532
      3          8           0       -3.715677    1.424326   -0.554992
 ---------------------------------------------------------------------
                    Distance matrix (angstroms):
                    1          2          3
     1  C    0.000000
     2  O    1.160659   0.000000
     3  O    1.160659   2.321318   0.000000
 Stoichiometry    CO2
 Framework group  C*V[C*(OCO)]
 Deg. of freedom     2
 Full point group                 C*V     NOp   4
 Largest Abelian subgroup         C2V     NOp   4
 Largest concise Abelian subgroup C1      NOp   1
                         Standard orientation:                         
 ---------------------------------------------------------------------
 Center     Atomic      Atomic             Coordinates (Angstroms)
 Number     Number       Type             X           Y           Z
 ---------------------------------------------------------------------
      1          6           0        0.000000    0.000000   -0.000000
      2          8           0       -0.000000    0.000000    1.160659
      3          8           0        0.000000   -0.000000   -1.160659
 ---------------------------------------------------------------------
 Rotational constants (GHZ):           0.0000000          11.7272490          11.7272490
 Standard basis: 6-31+G(d,p) (6D, 7F)
 There are    30 symmetry adapted cartesian basis functions of A1  symmetry.
 There are     3 symmetry adapted cartesian basis functions of A2  symmetry.
 There are    12 symmetry adapted cartesian basis functions of B1  symmetry.
 There are    12 symmetry adapted cartesian basis functions of B2  symmetry.
 There are    30 symmetry adapted basis functions of A1  symmetry.
 There are     3 symmetry adapted basis functions of A2  symmetry.
 There are    12 symmetry adapted basis functions of B1  symmetry.
 There are    12 symmetry adapted basis functions of B2  symmetry.
    57 basis functions,    96 primitive gaussians,    57 cartesian basis functions
    11 alpha electrons       11 beta electrons
       nuclear repulsion energy        58.3588247308 Hartrees.
 NAtoms=    3 NActive=    3 NUniq=    3 SFac= 1.00D+00 NAtFMM=   60 NAOKFM=F Big=F
 Integral buffers will be    131072 words long.
 Raffenetti 2 integral format.
 Two-electron integral symmetry is turned on.
 ------------------------------------------------------------------------------
 Polarizable Continuum Model (PCM)
 =================================
 Model                : PCM.
 Atomic radii         : SMD-Coulomb.
 Polarization charges : Total charges.
 Charge compensation  : None.
 Solution method      : On-the-fly selection.
 Cavity type          : VdW (van der Waals Surface) (Alpha=1.000).
 Cavity algorithm     : GePol (No added spheres)
                        Default sphere list used, NSphG=    3.
                        Lebedev-Laikov grids with approx.  5.0 points / Ang**2.
                        Smoothing algorithm: York/Karplus (Gamma=1.0000).
                        Polarization charges: spherical gaussians, with
                                              point-specific exponents (IZeta= 3).
                        Self-potential: point-specific (ISelfS= 7).
                        Self-field    : sphere-specific E.n sum rule (ISelfD= 2).
 1st derivatives      : Analytical E(r).r(x)/FMM algorithm (CHGder, D1EAlg=3).
                        Cavity 1st derivative terms included.
 Solvent              : Water, Eps=  78.355300 Eps(inf)=   1.777849
 ------------------------------------------------------------------------------
 Spheres list:
 ISph  on   Nord     Re0    Alpha      Xe            Ye            Ze
    1   C      1    1.8500  1.000     -0.000000      0.000000     -0.000000
    2   O      2    1.5200  1.000     -0.000000      0.000000      1.160659
    3   O      3    1.5200  1.000      0.000000      0.000000     -1.160659
 ------------------------------------------------------------------------------
 ------------------------------------------------------------------------------
 Atomic radii for non-electrostatic terms: SMD-CDS.
 ------------------------------------------------------------------------------
 Nuclear repulsion after PCM non-electrostatic terms =       58.3676781981 Hartrees.
 One-electron integrals computed using PRISM.
 NBasis=    57 RedAO= T EigKep=  1.01D-03  NBF=    30     3    12    12
 NBsUse=    57 1.00D-06 EigRej= -1.00D+00 NBFU=    30     3    12    12
 Initial guess from the checkpoint file:  "/scratch/gongke2021/co2-opt/Gau-24307.chk"
 B after Tr=    -0.000000    0.000000   -0.000000
         Rot=    1.000000   -0.000000   -0.000000    0.000000 Ang=   0.00 deg.
 Initial guess orbital symmetries:
       Occupied  (SG) (SG) (SG) (SG) (SG) (SG) (SG) (PI) (PI) (PI)
                 (PI)
       Virtual   (SG) (PI) (PI) (SG) (PI) (PI) (SG) (SG) (PI) (PI)
                 (SG) (PI) (PI) (SG) (SG) (PI) (PI) (SG) (SG) (SG)
                 (PI) (PI) (SG) (PI) (PI) (SG) (PI) (PI) (DLTA)
                 (DLTA) (SG) (DLTA) (DLTA) (DLTA) (DLTA) (SG) (PI)
                 (PI) (SG) (PI) (PI) (SG) (SG) (SG) (SG) (SG)
 ExpMin= 4.38D-02 ExpMax= 5.48D+03 ExpMxC= 8.25D+02 IAcc=2 IRadAn=         4 AccDes= 0.00D+00
 Harris functional with IExCor= 1009 and IRadAn=       4 diagonalized for initial guess.
 HarFok:  IExCor= 1009 AccDes= 0.00D+00 IRadAn=         4 IDoV= 1 UseB2=F ITyADJ=14
 ICtDFT=  3500011 ScaDFX=  1.000000  1.000000  1.000000  1.000000
 FoFCou: FMM=F IPFlag=           0 FMFlag=      100000 FMFlg1=           0
         NFxFlg=           0 DoJE=T BraDBF=F KetDBF=T FulRan=T
         wScrn=  0.000000 ICntrl=       500 IOpCl=  0 I1Cent=   200000004 NGrid=           0
         NMat0=    1 NMatS0=      1 NMatT0=    0 NMatD0=    1 NMtDS0=    0 NMtDT0=    0
 Petite list used in FoFCou.
 Keep R1 ints in memory in symmetry-blocked form, NReq=18979194.
 Requested convergence on RMS density matrix=1.00D-08 within 128 cycles.
 Requested convergence on MAX density matrix=1.00D-06.
 Requested convergence on             energy=1.00D-06.
 No special actions if energy rises.
 Inv3:  Mode=1 IEnd=      456300.
 Iteration    1 A*A^-1 deviation from unit magnitude is 3.77D-15 for    314.
 Iteration    1 A*A^-1 deviation from orthogonality  is 2.14D-15 for    197      9.
 Iteration    1 A^-1*A deviation from unit magnitude is 3.33D-15 for    314.
 Iteration    1 A^-1*A deviation from orthogonality  is 9.97D-16 for    352    143.
 Error on total polarization charges =  0.02295
 SCF Done:  E(RM062X) =  -188.512517017     A.U. after    8 cycles
            NFock=  8  Conv=0.89D-08     -V/T= 2.0081
 SMD-CDS (non-electrostatic) energy       (kcal/mol) =       5.56
 (included in total energy above)
 D1PCM: PCM CHGder 1st derivatives, ID1Alg=3 FixD1E=F DoIter=F DoCFld=F I1PDM=0.
 Calling FoFJK, ICntrl=      2127 FMM=F ISym2X=1 I1Cent= 0 IOpClX= 0 NMat=1 NMatS=1 NMatT=0.
 ***** Axes restored to original set *****
 -------------------------------------------------------------------
 Center     Atomic                   Forces (Hartrees/Bohr)
 Number     Number              X              Y              Z
 -------------------------------------------------------------------
      1        6           0.000000441   -0.000000100    0.000000118
      2        8           0.005083176   -0.001151337    0.001363534
      3        8          -0.005083617    0.001151437   -0.001363652
 -------------------------------------------------------------------
 Cartesian Forces:  Max     0.005083617 RMS     0.002539729

 GradGradGradGradGradGradGradGradGradGradGradGradGradGradGradGradGradGrad
 Berny optimization.
 Using GEDIIS/GDIIS optimizer.
 Internal  Forces:  Max     0.005387812 RMS     0.003809593
 Search for a local minimum.
 Step number   4 out of a maximum of   20
 All quantities printed in internal units (Hartrees-Bohrs-Radians)
 Mixed Optimization -- RFO/linear search
 Update second derivatives using D2CorX and points    3    4
 DE= -8.11D-03 DEPred=-1.27D-02 R= 6.36D-01
 TightC=F SS=  1.41D+00  RLast= 1.29D-01 DXNew= 1.4270D+00 3.8720D-01
 Trust test= 6.36D-01 RLast= 1.29D-01 DXMaxT set to 8.49D-01
 The second derivative matrix:
                          R1        R2        A1        A2
           R1           0.67317
           R2           0.35966   0.67317
           A1          -0.00000  -0.00000   0.00237
           A2          -0.00000  -0.00000   0.00000   0.00237
 ITU=  1  1  1  0
 Use linear search instead of GDIIS.
     Eigenvalues ---    0.00237   0.00237   0.31351   1.03283
 RFO step:  Lambda= 0.00000000D+00 EMin= 2.36719523D-03
 Quartic linear search produced a step of -0.04898.
 Iteration  1 RMS(Cart)=  0.00316079 RMS(Int)=  0.00000001
 Iteration  2 RMS(Cart)=  0.00000001 RMS(Int)=  0.00000001
 ClnCor:  largest displacement from symmetrization is 1.99D-08 for atom     1.
 Variable       Old X    -DE/DX   Delta X   Delta X   Delta X     New X
                                 (Linear)    (Quad)   (Total)
    R1        2.19333   0.00539   0.00447  -0.00000   0.00447   2.19780
    R2        2.19333   0.00539   0.00447   0.00000   0.00447   2.19780
    A1        3.14159  -0.00000   0.00000  -0.00000  -0.00000   3.14159
    A2        3.14159   0.00000   0.00000   0.00000   0.00000   3.14159
         Item               Value     Threshold  Converged?
 Maximum Force            0.005388     0.000450     NO 
 RMS     Force            0.003810     0.000300     NO 
 Maximum Displacement     0.004218     0.001800     NO 
 RMS     Displacement     0.003161     0.001200     NO 
 Predicted change in Energy=-2.752813D-05
 GradGradGradGradGradGradGradGradGradGradGradGradGradGradGradGradGradGrad

                          Input orientation:                          
 ---------------------------------------------------------------------
 Center     Atomic      Atomic             Coordinates (Angstroms)
 Number     Number       Type             X           Y           Z
 ---------------------------------------------------------------------
      1          6           0       -2.620549    1.176280   -0.261230
      2          8           0       -1.523189    0.927728    0.033131
      3          8           0       -3.717909    1.424831   -0.555591
 ---------------------------------------------------------------------
                    Distance matrix (angstroms):
                    1          2          3
     1  C    0.000000
     2  O    1.163024   0.000000
     3  O    1.163024   2.326048   0.000000
 Stoichiometry    CO2
 Framework group  C*V[C*(OCO)]
 Deg. of freedom     2
 Full point group                 C*V     NOp   4
 Largest Abelian subgroup         C2V     NOp   4
 Largest concise Abelian subgroup C1      NOp   1
                         Standard orientation:                         
 ---------------------------------------------------------------------
 Center     Atomic      Atomic             Coordinates (Angstroms)
 Number     Number       Type             X           Y           Z
 ---------------------------------------------------------------------
      1          6           0        0.000000    0.000000    0.000000
      2          8           0        0.000000    0.000000    1.163024
      3          8           0       -0.000000   -0.000000   -1.163024
 ---------------------------------------------------------------------
 Rotational constants (GHZ):           0.0000000          11.6795941          11.6795941
 Standard basis: 6-31+G(d,p) (6D, 7F)
 There are    30 symmetry adapted cartesian basis functions of A1  symmetry.
 There are     3 symmetry adapted cartesian basis functions of A2  symmetry.
 There are    12 symmetry adapted cartesian basis functions of B1  symmetry.
 There are    12 symmetry adapted cartesian basis functions of B2  symmetry.
 There are    30 symmetry adapted basis functions of A1  symmetry.
 There are     3 symmetry adapted basis functions of A2  symmetry.
 There are    12 symmetry adapted basis functions of B1  symmetry.
 There are    12 symmetry adapted basis functions of B2  symmetry.
    57 basis functions,    96 primitive gaussians,    57 cartesian basis functions
    11 alpha electrons       11 beta electrons
       nuclear repulsion energy        58.2401303388 Hartrees.
 NAtoms=    3 NActive=    3 NUniq=    3 SFac= 1.00D+00 NAtFMM=   60 NAOKFM=F Big=F
 Integral buffers will be    131072 words long.
 Raffenetti 2 integral format.
 Two-electron integral symmetry is turned on.
 ------------------------------------------------------------------------------
 Polarizable Continuum Model (PCM)
 =================================
 Model                : PCM.
 Atomic radii         : SMD-Coulomb.
 Polarization charges : Total charges.
 Charge compensation  : None.
 Solution method      : On-the-fly selection.
 Cavity type          : VdW (van der Waals Surface) (Alpha=1.000).
 Cavity algorithm     : GePol (No added spheres)
                        Default sphere list used, NSphG=    3.
                        Lebedev-Laikov grids with approx.  5.0 points / Ang**2.
                        Smoothing algorithm: York/Karplus (Gamma=1.0000).
                        Polarization charges: spherical gaussians, with
                                              point-specific exponents (IZeta= 3).
                        Self-potential: point-specific (ISelfS= 7).
                        Self-field    : sphere-specific E.n sum rule (ISelfD= 2).
 1st derivatives      : Analytical E(r).r(x)/FMM algorithm (CHGder, D1EAlg=3).
                        Cavity 1st derivative terms included.
 Solvent              : Water, Eps=  78.355300 Eps(inf)=   1.777849
 ------------------------------------------------------------------------------
 Spheres list:
 ISph  on   Nord     Re0    Alpha      Xe            Ye            Ze
    1   C      1    1.8500  1.000     -0.000000      0.000000      0.000000
    2   O      2    1.5200  1.000      0.000000     -0.000000      1.163024
    3   O      3    1.5200  1.000      0.000000      0.000000     -1.163024
 ------------------------------------------------------------------------------
 ------------------------------------------------------------------------------
 Atomic radii for non-electrostatic terms: SMD-CDS.
 ------------------------------------------------------------------------------
 Nuclear repulsion after PCM non-electrostatic terms =       58.2489770006 Hartrees.
 One-electron integrals computed using PRISM.
 NBasis=    57 RedAO= T EigKep=  1.01D-03  NBF=    30     3    12    12
 NBsUse=    57 1.00D-06 EigRej= -1.00D+00 NBFU=    30     3    12    12
 Initial guess from the checkpoint file:  "/scratch/gongke2021/co2-opt/Gau-24307.chk"
 B after Tr=     0.000000    0.000000   -0.000000
         Rot=    1.000000    0.000000   -0.000000    0.000000 Ang=   0.00 deg.
 Initial guess orbital symmetries:
       Occupied  (SG) (SG) (SG) (SG) (SG) (SG) (SG) (PI) (PI) (PI)
                 (PI)
       Virtual   (SG) (SG) (PI) (PI) (PI) (PI) (SG) (SG) (PI) (PI)
                 (SG) (PI) (PI) (SG) (SG) (PI) (PI) (SG) (SG) (SG)
                 (SG) (PI) (PI) (PI) (PI) (SG) (DLTA) (DLTA) (PI)
                 (PI) (SG) (DLTA) (DLTA) (DLTA) (DLTA) (SG) (PI)
                 (PI) (SG) (PI) (PI) (SG) (SG) (SG) (SG) (SG)
 Keep R1 ints in memory in symmetry-blocked form, NReq=18979194.
 Requested convergence on RMS density matrix=1.00D-08 within 128 cycles.
 Requested convergence on MAX density matrix=1.00D-06.
 Requested convergence on             energy=1.00D-06.
 No special actions if energy rises.
 Inv3:  Mode=1 IEnd=      456300.
 Iteration    1 A*A^-1 deviation from unit magnitude is 2.89D-15 for    374.
 Iteration    1 A*A^-1 deviation from orthogonality  is 1.55D-15 for    192     99.
 Iteration    1 A^-1*A deviation from unit magnitude is 2.89D-15 for    374.
 Iteration    1 A^-1*A deviation from orthogonality  is 8.73D-16 for    354    145.
 Error on total polarization charges =  0.02298
 SCF Done:  E(RM062X) =  -188.512540985     A.U. after    7 cycles
            NFock=  7  Conv=0.46D-08     -V/T= 2.0082
 SMD-CDS (non-electrostatic) energy       (kcal/mol) =       5.55
 (included in total energy above)
 D1PCM: PCM CHGder 1st derivatives, ID1Alg=3 FixD1E=F DoIter=F DoCFld=F I1PDM=0.
 Calling FoFJK, ICntrl=      2127 FMM=F ISym2X=1 I1Cent= 0 IOpClX= 0 NMat=1 NMatS=1 NMatT=0.
 ***** Axes restored to original set *****
 -------------------------------------------------------------------
 Center     Atomic                   Forces (Hartrees/Bohr)
 Number     Number              X              Y              Z
 -------------------------------------------------------------------
      1        6          -0.000000954    0.000000216   -0.000000256
      2        8          -0.000009773    0.000002214   -0.000002622
      3        8           0.000010727   -0.000002430    0.000002877
 -------------------------------------------------------------------
 Cartesian Forces:  Max     0.000010727 RMS     0.000005138

 GradGradGradGradGradGradGradGradGradGradGradGradGradGradGradGradGradGrad
 Berny optimization.
 Using GEDIIS/GDIIS optimizer.
 Internal  Forces:  Max     0.000011369 RMS     0.000007690
 Search for a local minimum.
 Step number   5 out of a maximum of   20
 All quantities printed in internal units (Hartrees-Bohrs-Radians)
 Mixed Optimization -- En-DIIS/RFO-DIIS
 Update second derivatives using D2CorX and points    3    4    5
 DE= -2.40D-05 DEPred=-2.75D-05 R= 8.71D-01
 TightC=F SS=  1.41D+00  RLast= 6.32D-03 DXNew= 1.4270D+00 1.8965D-02
 Trust test= 8.71D-01 RLast= 6.32D-03 DXMaxT set to 8.49D-01
 The second derivative matrix:
                          R1        R2        A1        A2
           R1           0.76049
           R2           0.44709   0.76071
           A1          -0.00000  -0.00000   0.00237
           A2          -0.00000  -0.00000   0.00000   0.00237
 ITU=  1  1  1  1  0
 Use linear search instead of GDIIS.
     Eigenvalues ---    0.00237   0.00237   0.31351   1.20769
 RFO step:  Lambda= 0.00000000D+00 EMin= 2.36719523D-03
 Quartic linear search produced a step of -0.00203.
 Iteration  1 RMS(Cart)=  0.00000645 RMS(Int)=  0.00000000
 Iteration  2 RMS(Cart)=  0.00000000 RMS(Int)=  0.00000001
 ClnCor:  largest displacement from symmetrization is 3.17D-10 for atom     1.
 Variable       Old X    -DE/DX   Delta X   Delta X   Delta X     New X
                                 (Linear)    (Quad)   (Total)
    R1        2.19780  -0.00001  -0.00001   0.00000  -0.00001   2.19779
    R2        2.19780  -0.00001  -0.00001  -0.00000  -0.00001   2.19779
    A1        3.14159  -0.00000  -0.00000  -0.00000  -0.00000   3.14159
    A2        3.14159   0.00000   0.00000   0.00000   0.00000   3.14159
         Item               Value     Threshold  Converged?
 Maximum Force            0.000011     0.000450     YES
 RMS     Force            0.000008     0.000300     YES
 Maximum Displacement     0.000009     0.001800     YES
 RMS     Displacement     0.000006     0.001200     YES
 Predicted change in Energy=-9.851816D-11
 Optimization completed.
    -- Stationary point found.
                           ----------------------------
                           !   Optimized Parameters   !
                           ! (Angstroms and Degrees)  !
 --------------------------                            --------------------------
 ! Name  Definition              Value          Derivative Info.                !
 --------------------------------------------------------------------------------
 ! R1    R(1,2)                  1.163          -DE/DX =    0.0                 !
 ! R2    R(1,3)                  1.163          -DE/DX =    0.0                 !
 ! A1    L(2,1,3,-2,-1)        180.0            -DE/DX =    0.0                 !
 ! A2    L(2,1,3,-3,-2)        180.0            -DE/DX =    0.0                 !
 --------------------------------------------------------------------------------
 GradGradGradGradGradGradGradGradGradGradGradGradGradGradGradGradGradGrad

                          Input orientation:                          
 ---------------------------------------------------------------------
 Center     Atomic      Atomic             Coordinates (Angstroms)
 Number     Number       Type             X           Y           Z
 ---------------------------------------------------------------------
      1          6           0       -2.620549    1.176280   -0.261230
      2          8           0       -1.523189    0.927728    0.033131
      3          8           0       -3.717909    1.424831   -0.555591
 ---------------------------------------------------------------------
                    Distance matrix (angstroms):
                    1          2          3
     1  C    0.000000
     2  O    1.163024   0.000000
     3  O    1.163024   2.326048   0.000000
 Stoichiometry    CO2
 Framework group  C*V[C*(OCO)]
 Deg. of freedom     2
 Full point group                 C*V     NOp   4
 Largest Abelian subgroup         C2V     NOp   4
 Largest concise Abelian subgroup C1      NOp   1
                         Standard orientation:                         
 ---------------------------------------------------------------------
 Center     Atomic      Atomic             Coordinates (Angstroms)
 Number     Number       Type             X           Y           Z
 ---------------------------------------------------------------------
      1          6           0       -0.000000    0.000000    0.000000
      2          8           0       -0.000000    0.000000    1.163024
      3          8           0        0.000000   -0.000000   -1.163024
 ---------------------------------------------------------------------
 Rotational constants (GHZ):           0.0000000          11.6795941          11.6795941

 **********************************************************************

            Population analysis using the SCF density.

 **********************************************************************

 Orbital symmetries:
       Occupied  (SG) (SG) (SG) (SG) (SG) (SG) (SG) (PI) (PI) (PI)
                 (PI)
       Virtual   (SG) (SG) (PI) (PI) (PI) (PI) (SG) (SG) (PI) (PI)
                 (SG) (PI) (PI) (SG) (SG) (PI) (PI) (SG) (SG) (SG)
                 (PI) (PI) (SG) (PI) (PI) (SG) (DLTA) (DLTA) (PI)
                 (PI) (SG) (DLTA) (DLTA) (DLTA) (DLTA) (SG) (PI)
                 (PI) (SG) (PI) (PI) (SG) (SG) (SG) (SG) (SG)
 The electronic state is 1-SG.
 Alpha  occ. eigenvalues --  -19.73226 -19.73225 -10.75473  -1.29355  -1.24391
 Alpha  occ. eigenvalues --   -0.66189  -0.61037  -0.60212  -0.60212  -0.44583
 Alpha  occ. eigenvalues --   -0.44583
 Alpha virt. eigenvalues --    0.00854   0.05399   0.05817   0.05817   0.08562
 Alpha virt. eigenvalues --    0.08562   0.17144   0.19621   0.21049   0.21049
 Alpha virt. eigenvalues --    0.25176   0.28725   0.28725   0.32065   0.39068
 Alpha virt. eigenvalues --    0.72223   0.72223   0.77610   0.96519   1.07906
 Alpha virt. eigenvalues --    1.17701   1.17701   1.17727   1.29846   1.29846
 Alpha virt. eigenvalues --    1.36160   1.43637   1.43638   1.48270   1.48270
 Alpha virt. eigenvalues --    1.51338   1.77686   1.77686   2.08168   2.08169
 Alpha virt. eigenvalues --    2.14537   2.18873   2.18873   2.87643   3.03428
 Alpha virt. eigenvalues --    3.03428   3.31399   3.34391   4.04357   4.62345
 Alpha virt. eigenvalues --    4.81147
          Condensed to atoms (all electrons):
               1          2          3
     1  C    4.339828   0.422416   0.422416
     2  O    0.422416   8.087302  -0.102048
     3  O    0.422416  -0.102048   8.087303
 Mulliken charges:
               1
     1  C    0.815340
     2  O   -0.407670
     3  O   -0.407670
 Sum of Mulliken charges =  -0.00000
 Mulliken charges with hydrogens summed into heavy atoms:
               1
     1  C    0.815340
     2  O   -0.407670
     3  O   -0.407670
 Electronic spatial extent (au):  <R**2>=            114.4112
 Charge=              0.0000 electrons
 Dipole moment (field-independent basis, Debye):
    X=             -0.0000    Y=             -0.0000    Z=              0.0000  Tot=              0.0000
 Quadrupole moment (field-independent basis, Debye-Ang):
   XX=            -14.8234   YY=            -14.8234   ZZ=            -20.2893
   XY=             -0.0000   XZ=              0.0000   YZ=              0.0000
 Traceless Quadrupole moment (field-independent basis, Debye-Ang):
   XX=              1.8220   YY=              1.8220   ZZ=             -3.6440
   XY=             -0.0000   XZ=              0.0000   YZ=              0.0000
 Octapole moment (field-independent basis, Debye-Ang**2):
  XXX=             -0.0000  YYY=             -0.0000  ZZZ=              0.0000  XYY=             -0.0000
  XXY=             -0.0000  XXZ=              0.0000  XZZ=             -0.0000  YZZ=             -0.0000
  YYZ=              0.0000  XYZ=              0.0000
 Hexadecapole moment (field-independent basis, Debye-Ang**3):
 XXXX=            -11.7111 YYYY=            -11.7111 ZZZZ=           -107.4577 XXXY=             -0.0000
 XXXZ=              0.0000 YYYX=             -0.0000 YYYZ=              0.0000 ZZZX=              0.0000
 ZZZY=              0.0000 XXYY=             -3.9037 XXZZ=            -19.4849 YYZZ=            -19.4849
 XXYZ=              0.0000 YYXZ=              0.0000 ZZXY=             -0.0000
 N-N= 5.824897700055D+01 E-N=-5.590747911954D+02  KE= 1.869706990171D+02
 Symmetry A1   KE= 1.700848732178D+02
 Symmetry A2   KE= 2.923249227428D-31
 Symmetry B1   KE= 8.442912899664D+00
 Symmetry B2   KE= 8.442912899664D+00
 1\1\GINC-NODE2\FOpt\RM062X\6-31+G(d,p)\C1O2\GONGKE2021\01-Jul-2023\0\\
 # m062x/6-31+G(d,p) opt freq scrf=(SMD,solvent=water)\\structure\\0,1\
 C,-2.6205490084,1.1762797995,-0.2612299779\O,-1.523189129,0.9277283588
 ,0.0331307664\O,-3.7179093733,1.4248313501,-0.5555908524\\Version=ES64
 L-G16RevA.03\State=1-SG\HF=-188.512541\RMSD=4.603e-09\RMSF=5.138e-06\D
 ipole=0.0000012,-0.0000003,0.0000003\Quadrupole=-2.2632629,1.1689914,1
 .0942715,0.8194429,-0.9704704,0.219811\PG=C*V [C*(O1C1O1)]\\@


 The cat could very well be man's best friend
 but would never stoop to admitting it.
                               -- Doug Larson
 Job cpu time:       0 days  0 hours  4 minutes 22.0 seconds.
 Elapsed time:       0 days  0 hours  0 minutes 14.7 seconds.
 File lengths (MBytes):  RWF=     10 Int=      0 D2E=      0 Chk=      2 Scr=      1
 Normal termination of Gaussian 16 at Sat Jul  1 02:37:07 2023.
 Link1:  Proceeding to internal job step number  2.
 ----------------------------------------------------------------------
 #N Geom=AllCheck Guess=TCheck SCRF=Check GenChk RM062X/6-31+G(d,p) Fre
 q
 ----------------------------------------------------------------------
 1/10=4,29=7,30=1,38=1,40=1/1,3;
 2/12=2,40=1/2;
 3/5=1,6=6,7=111,11=2,14=-4,25=1,30=1,70=2,71=2,74=-55,116=1,140=1/1,2,3;
 4/5=101/1;
 5/5=2,38=6,98=1/2;
 8/6=4,10=90,11=11/1;
 11/6=1,8=1,9=11,15=111,16=1/1,2,10;
 10/6=1/2;
 6/7=2,8=2,9=2,10=2,28=1/1;
 7/8=1,10=1,25=1/1,2,3,16;
 1/10=4,30=1/3;
 99//99;
 Structure from the checkpoint file:  "/scratch/gongke2021/co2-opt/Gau-24307.chk"
 ---------
 structure
 ---------
 Charge =  0 Multiplicity = 1
 Redundant internal coordinates found in file.  (old form).
 C,0,-2.6205490084,1.1762797995,-0.2612299779
 O,0,-1.523189129,0.9277283588,0.0331307664
 O,0,-3.7179093733,1.4248313501,-0.5555908524
 Recover connectivity data from disk.

 GradGradGradGradGradGradGradGradGradGradGradGradGradGradGradGradGradGrad
 Berny optimization.
 Initialization pass.
                           ----------------------------
                           !    Initial Parameters    !
                           ! (Angstroms and Degrees)  !
 --------------------------                            --------------------------
 ! Name  Definition              Value          Derivative Info.                !
 --------------------------------------------------------------------------------
 ! R1    R(1,2)                  1.163          calculate D2E/DX2 analytically  !
 ! R2    R(1,3)                  1.163          calculate D2E/DX2 analytically  !
 ! A1    L(2,1,3,-2,-1)        180.0            calculate D2E/DX2 analytically  !
 ! A2    L(2,1,3,-3,-2)        180.0            calculate D2E/DX2 analytically  !
 --------------------------------------------------------------------------------
 Trust Radius=3.00D-01 FncErr=1.00D-07 GrdErr=1.00D-07 EigMax=2.50D+02 EigMin=1.00D-04
 Number of steps in this run=      2 maximum allowed number of steps=      2.
 GradGradGradGradGradGradGradGradGradGradGradGradGradGradGradGradGradGrad

                          Input orientation:                          
 ---------------------------------------------------------------------
 Center     Atomic      Atomic             Coordinates (Angstroms)
 Number     Number       Type             X           Y           Z
 ---------------------------------------------------------------------
      1          6           0       -2.620549    1.176280   -0.261230
      2          8           0       -1.523189    0.927728    0.033131
      3          8           0       -3.717909    1.424831   -0.555591
 ---------------------------------------------------------------------
                    Distance matrix (angstroms):
                    1          2          3
     1  C    0.000000
     2  O    1.163024   0.000000
     3  O    1.163024   2.326048   0.000000
 Stoichiometry    CO2
 Framework group  C*V[C*(OCO)]
 Deg. of freedom     2
 Full point group                 C*V     NOp   4
 Largest Abelian subgroup         C2V     NOp   4
 Largest concise Abelian subgroup C1      NOp   1
                         Standard orientation:                         
 ---------------------------------------------------------------------
 Center     Atomic      Atomic             Coordinates (Angstroms)
 Number     Number       Type             X           Y           Z
 ---------------------------------------------------------------------
      1          6           0       -0.000000   -0.000000    0.000000
      2          8           0       -0.000000   -0.000000    1.163024
      3          8           0        0.000000    0.000000   -1.163024
 ---------------------------------------------------------------------
 Rotational constants (GHZ):           0.0000000          11.6795941          11.6795941
 Standard basis: 6-31+G(d,p) (6D, 7F)
 There are    30 symmetry adapted cartesian basis functions of A1  symmetry.
 There are     3 symmetry adapted cartesian basis functions of A2  symmetry.
 There are    12 symmetry adapted cartesian basis functions of B1  symmetry.
 There are    12 symmetry adapted cartesian basis functions of B2  symmetry.
 There are    30 symmetry adapted basis functions of A1  symmetry.
 There are     3 symmetry adapted basis functions of A2  symmetry.
 There are    12 symmetry adapted basis functions of B1  symmetry.
 There are    12 symmetry adapted basis functions of B2  symmetry.
    57 basis functions,    96 primitive gaussians,    57 cartesian basis functions
    11 alpha electrons       11 beta electrons
       nuclear repulsion energy        58.2401303388 Hartrees.
 NAtoms=    3 NActive=    3 NUniq=    3 SFac= 1.00D+00 NAtFMM=   60 NAOKFM=F Big=F
 Integral buffers will be    131072 words long.
 Raffenetti 2 integral format.
 Two-electron integral symmetry is turned on.
 Force inversion solution in PCM.
 ------------------------------------------------------------------------------
 Polarizable Continuum Model (PCM)
 =================================
 Model                : PCM.
 Atomic radii         : SMD-Coulomb.
 Polarization charges : Total charges.
 Charge compensation  : None.
 Solution method      : Matrix inversion.
 Cavity type          : VdW (van der Waals Surface) (Alpha=1.000).
 Cavity algorithm     : GePol (No added spheres)
                        Default sphere list used, NSphG=    3.
                        Lebedev-Laikov grids with approx.  5.0 points / Ang**2.
                        Smoothing algorithm: York/Karplus (Gamma=1.0000).
                        Polarization charges: spherical gaussians, with
                                              point-specific exponents (IZeta= 3).
                        Self-potential: point-specific (ISelfS= 7).
                        Self-field    : sphere-specific E.n sum rule (ISelfD= 2).
 1st derivatives      : Analytical E(r).r(x)/FMM algorithm (CHGder, D1EAlg=3).
                        Cavity 1st derivative terms included.
 2nd derivatives      : Analytical E(r).r(xy)/FMM algorithm (CHGder, D2EAlg=3).
                        Cavity 2nd derivative terms included.
 Solvent              : Water, Eps=  78.355300 Eps(inf)=   1.777849
 ------------------------------------------------------------------------------
 Spheres list:
 ISph  on   Nord     Re0    Alpha      Xe            Ye            Ze
    1   C      1    1.8500  1.000     -0.000000      0.000000      0.000000
    2   O      2    1.5200  1.000     -0.000000     -0.000000      1.163024
    3   O      3    1.5200  1.000      0.000000      0.000000     -1.163024
 ------------------------------------------------------------------------------
 ------------------------------------------------------------------------------
 Atomic radii for non-electrostatic terms: SMD-CDS.
 ------------------------------------------------------------------------------
 Nuclear repulsion after PCM non-electrostatic terms =       58.2489770006 Hartrees.
 One-electron integrals computed using PRISM.
 NBasis=    57 RedAO= T EigKep=  1.01D-03  NBF=    30     3    12    12
 NBsUse=    57 1.00D-06 EigRej= -1.00D+00 NBFU=    30     3    12    12
 Initial guess from the checkpoint file:  "/scratch/gongke2021/co2-opt/Gau-24307.chk"
 B after Tr=    -0.000000   -0.000000   -0.000000
         Rot=    1.000000    0.000000    0.000000    0.000000 Ang=   0.00 deg.
 Initial guess orbital symmetries:
       Occupied  (SG) (SG) (SG) (SG) (SG) (SG) (SG) (PI) (PI) (PI)
                 (PI)
       Virtual   (SG) (SG) (PI) (PI) (PI) (PI) (SG) (SG) (PI) (PI)
                 (SG) (PI) (PI) (SG) (SG) (PI) (PI) (SG) (SG) (SG)
                 (PI) (PI) (SG) (PI) (PI) (SG) (DLTA) (DLTA) (PI)
                 (PI) (SG) (DLTA) (DLTA) (DLTA) (DLTA) (SG) (PI)
                 (PI) (SG) (PI) (PI) (SG) (SG) (SG) (SG) (SG)
 Keep R1 ints in memory in symmetry-blocked form, NReq=18979194.
 Requested convergence on RMS density matrix=1.00D-08 within 128 cycles.
 Requested convergence on MAX density matrix=1.00D-06.
 Requested convergence on             energy=1.00D-06.
 No special actions if energy rises.
 Inv3:  Mode=1 IEnd=      456300.
 Iteration    1 A*A^-1 deviation from unit magnitude is 2.89D-15 for    374.
 Iteration    1 A*A^-1 deviation from orthogonality  is 1.44D-15 for    279    207.
 Iteration    1 A^-1*A deviation from unit magnitude is 2.89D-15 for    389.
 Iteration    1 A^-1*A deviation from orthogonality  is 1.16D-15 for    358    169.
 Error on total polarization charges =  0.02298
 SCF Done:  E(RM062X) =  -188.512540985     A.U. after    1 cycles
            NFock=  1  Conv=0.52D-08     -V/T= 2.0082
 SMD-CDS (non-electrostatic) energy       (kcal/mol) =       5.55
 (included in total energy above)
 DoSCS=F DFT=T ScalE2(SS,OS)=  1.000000  1.000000
 Range of M.O.s used for correlation:     1    57
 NBasis=    57 NAE=    11 NBE=    11 NFC=     0 NFV=     0
 NROrb=     57 NOA=    11 NOB=    11 NVA=    46 NVB=    46

 **** Warning!!: The largest alpha MO coefficient is  0.11415183D+02

 Symmetrizing basis deriv contribution to polar:
 IMax=3 JMax=2 DiffMx= 0.00D+00
 G2DrvN: will do     4 centers at a time, making    1 passes.
 Calling FoFCou, ICntrl=  3107 FMM=F I1Cent=   0 AccDes= 0.00D+00.
 NEqPCM:  Using equilibrium solvation (IEInf=0, Eps=  78.3553, EpsInf=   1.7778)
 G2PCM: DoFxE=T DoFxN=T DoGrad=T DoDP/DQ/DG/TGxP=FFFF NFrqRd=   0 IEInf=0 SqF1=F DoCFld=F IF1Alg=4.
 End of G2Drv F.D. properties file   721 does not exist.
 End of G2Drv F.D. properties file   722 does not exist.
 End of G2Drv F.D. properties file   788 does not exist.
          IDoAtm=111
 NEqPCM:  Using equilibrium solvation (IEInf=0, Eps=  78.3553, EpsInf=   1.7778)
          Differentiating once with respect to electric field.
                with respect to dipole field.
          Differentiating once with respect to nuclear coordinates.
 Keep R1 ints in memory in symmetry-blocked form, NReq=18911963.
          There are    12 degrees of freedom in the 1st order CPHF.  IDoFFX=6 NUNeed=     3.
      9 vectors produced by pass  0 Test12= 4.22D-15 8.33D-09 XBig12= 1.55D+01 2.55D+00.
 AX will form     9 AO Fock derivatives at one time.
      9 vectors produced by pass  1 Test12= 4.22D-15 8.33D-09 XBig12= 4.85D+00 7.93D-01.
      9 vectors produced by pass  2 Test12= 4.22D-15 8.33D-09 XBig12= 3.18D-02 6.65D-02.
      9 vectors produced by pass  3 Test12= 4.22D-15 8.33D-09 XBig12= 2.02D-04 5.09D-03.
      9 vectors produced by pass  4 Test12= 4.22D-15 8.33D-09 XBig12= 6.43D-07 2.38D-04.
      9 vectors produced by pass  5 Test12= 4.22D-15 8.33D-09 XBig12= 3.25D-09 1.70D-05.
      7 vectors produced by pass  6 Test12= 4.22D-15 8.33D-09 XBig12= 5.00D-11 2.50D-06.
      2 vectors produced by pass  7 Test12= 4.22D-15 8.33D-09 XBig12= 2.52D-13 1.49D-07.
      1 vectors produced by pass  8 Test12= 4.22D-15 8.33D-09 XBig12= 9.33D-16 9.56D-09.
 InvSVY:  IOpt=1 It=  1 EMax= 4.44D-16
 Solved reduced A of dimension    64 with     9 vectors.
 Isotropic polarizability for W=    0.000000       18.50 Bohr**3.
 End of Minotr F.D. properties file   721 does not exist.
 End of Minotr F.D. properties file   722 does not exist.
 End of Minotr F.D. properties file   788 does not exist.

 **********************************************************************

            Population analysis using the SCF density.

 **********************************************************************

 Orbital symmetries:
       Occupied  (SG) (SG) (SG) (SG) (SG) (SG) (SG) (PI) (PI) (PI)
                 (PI)
       Virtual   (SG) (SG) (PI) (PI) (PI) (PI) (SG) (SG) (PI) (PI)
                 (SG) (PI) (PI) (SG) (SG) (PI) (PI) (SG) (SG) (SG)
                 (PI) (PI) (SG) (PI) (PI) (SG) (DLTA) (DLTA) (PI)
                 (PI) (SG) (DLTA) (DLTA) (DLTA) (DLTA) (SG) (PI)
                 (PI) (SG) (PI) (PI) (SG) (SG) (SG) (SG) (SG)
 The electronic state is 1-SG.
 Alpha  occ. eigenvalues --  -19.73226 -19.73225 -10.75473  -1.29355  -1.24391
 Alpha  occ. eigenvalues --   -0.66189  -0.61037  -0.60212  -0.60212  -0.44583
 Alpha  occ. eigenvalues --   -0.44583
 Alpha virt. eigenvalues --    0.00854   0.05399   0.05817   0.05817   0.08562
 Alpha virt. eigenvalues --    0.08562   0.17144   0.19621   0.21049   0.21049
 Alpha virt. eigenvalues --    0.25176   0.28725   0.28725   0.32065   0.39068
 Alpha virt. eigenvalues --    0.72223   0.72223   0.77610   0.96519   1.07906
 Alpha virt. eigenvalues --    1.17701   1.17701   1.17727   1.29846   1.29846
 Alpha virt. eigenvalues --    1.36160   1.43637   1.43638   1.48270   1.48270
 Alpha virt. eigenvalues --    1.51338   1.77686   1.77686   2.08168   2.08169
 Alpha virt. eigenvalues --    2.14537   2.18873   2.18873   2.87643   3.03428
 Alpha virt. eigenvalues --    3.03428   3.31399   3.34391   4.04357   4.62345
 Alpha virt. eigenvalues --    4.81147
          Condensed to atoms (all electrons):
               1          2          3
     1  C    4.339829   0.422416   0.422416
     2  O    0.422416   8.087302  -0.102048
     3  O    0.422416  -0.102048   8.087303
 Mulliken charges:
               1
     1  C    0.815340
     2  O   -0.407669
     3  O   -0.407671
 Sum of Mulliken charges =  -0.00000
 Mulliken charges with hydrogens summed into heavy atoms:
               1
     1  C    0.815340
     2  O   -0.407669
     3  O   -0.407671
 APT charges:
               1
     1  C    1.721644
     2  O   -0.860822
     3  O   -0.860823
 Sum of APT charges =  -0.00000
 APT charges with hydrogens summed into heavy atoms:
               1
     1  C    1.721644
     2  O   -0.860822
     3  O   -0.860823
 Electronic spatial extent (au):  <R**2>=            114.4112
 Charge=              0.0000 electrons
 Dipole moment (field-independent basis, Debye):
    X=              0.0000    Y=              0.0000    Z=              0.0000  Tot=              0.0000
 Quadrupole moment (field-independent basis, Debye-Ang):
   XX=            -14.8234   YY=            -14.8234   ZZ=            -20.2893
   XY=             -0.0000   XZ=              0.0000   YZ=              0.0000
 Traceless Quadrupole moment (field-independent basis, Debye-Ang):
   XX=              1.8220   YY=              1.8220   ZZ=             -3.6440
   XY=             -0.0000   XZ=              0.0000   YZ=              0.0000
 Octapole moment (field-independent basis, Debye-Ang**2):
  XXX=              0.0000  YYY=             -0.0000  ZZZ=              0.0000  XYY=              0.0000
  XXY=             -0.0000  XXZ=              0.0000  XZZ=              0.0000  YZZ=             -0.0000
  YYZ=              0.0000  XYZ=              0.0000
 Hexadecapole moment (field-independent basis, Debye-Ang**3):
 XXXX=            -11.7111 YYYY=            -11.7111 ZZZZ=           -107.4577 XXXY=             -0.0000
 XXXZ=              0.0000 YYYX=             -0.0000 YYYZ=              0.0000 ZZZX=              0.0000
 ZZZY=              0.0000 XXYY=             -3.9037 XXZZ=            -19.4849 YYZZ=            -19.4849
 XXYZ=              0.0000 YYXZ=              0.0000 ZZXY=             -0.0000
 N-N= 5.824897700055D+01 E-N=-5.590747905929D+02  KE= 1.869706986637D+02
 Symmetry A1   KE= 1.700848729583D+02
 Symmetry A2   KE= 2.430088692487D-30
 Symmetry B1   KE= 8.442912852696D+00
 Symmetry B2   KE= 8.442912852696D+00
  Exact polarizability:  10.425  -0.000  10.425  -0.000   0.000  34.637
 Approx polarizability:   9.626   0.000   9.626  -0.000  -0.000  36.284
 D2PCM: PCM CHGder 2nd derivatives, FixD1E=F FixD2E=F DoIter=F DoCFld=F I1PDM=0
 Calling FoFJK, ICntrl=    100127 FMM=F ISym2X=1 I1Cent= 0 IOpClX= 0 NMat=1 NMatS=1 NMatT=0.
 Full mass-weighted force constant matrix:
 Low frequencies ---   -5.1336   -5.1336   -0.0010   -0.0009   -0.0006  662.2316
 Low frequencies ---  662.2316 1406.6698 2379.0007
 Diagonal vibrational polarizability:
        3.4519700       3.4519700       7.4528434
 Harmonic frequencies (cm**-1), IR intensities (KM/Mole), Raman scattering
 activities (A**4/AMU), depolarization ratios for plane and unpolarized
 incident light, reduced masses (AMU), force constants (mDyne/A),
 and normal coordinates:
                      1                      2                      3
                     PI                     PI                     SG
 Frequencies --    662.2316               662.2316              1406.6698
 Red. masses --     12.8774                12.8774                15.9949
 Frc consts  --      3.3273                 3.3273                18.6473
 IR Inten    --     56.2540                56.2540                 0.0000
  Atom  AN      X      Y      Z        X      Y      Z        X      Y      Z
     1   6     0.78  -0.42  -0.00     0.42   0.78   0.00     0.00   0.00  -0.00
     2   8    -0.29   0.16   0.00    -0.16  -0.29   0.00    -0.00  -0.00  -0.71
     3   8    -0.29   0.16   0.00    -0.16  -0.29  -0.00    -0.00  -0.00   0.71
                      4
                     SG
 Frequencies --   2379.0007
 Red. masses --     12.8774
 Frc consts  --     42.9404
 IR Inten    --   1567.3934
  Atom  AN      X      Y      Z
     1   6     0.00  -0.00   0.88
     2   8    -0.00   0.00  -0.33
     3   8    -0.00   0.00  -0.33

 -------------------
 - Thermochemistry -
 -------------------
 Temperature   298.150 Kelvin.  Pressure   1.00000 Atm.
 Atom     1 has atomic number  6 and mass  12.00000
 Atom     2 has atomic number  8 and mass  15.99491
 Atom     3 has atomic number  8 and mass  15.99491
 Molecular mass:    43.98983 amu.
 Principal axes and moments of inertia in atomic units:
                           1         2         3
     Eigenvalues --     0.00000 154.52088 154.52088
           X           -0.00000   0.84800  -0.53000
           Y           -0.00000   0.53000   0.84800
           Z            1.00000   0.00000  -0.00000
 This molecule is a prolate symmetric top.
 Rotational symmetry number  1.
 Rotational temperature (Kelvin)      0.56053
 Rotational constant (GHZ):          11.679594
 Zero-point vibrational energy      30565.4 (Joules/Mol)
                                    7.30530 (Kcal/Mol)
 Vibrational temperatures:    952.80   952.80  2023.88  3422.85
          (Kelvin)
 
 Zero-point correction=                           0.011642 (Hartree/Particle)
 Thermal correction to Energy=                    0.014267
 Thermal correction to Enthalpy=                  0.015211
 Thermal correction to Gibbs Free Energy=        -0.009712
 Sum of electronic and zero-point Energies=           -188.500899
 Sum of electronic and thermal Energies=              -188.498274
 Sum of electronic and thermal Enthalpies=            -188.497330
 Sum of electronic and thermal Free Energies=         -188.522253
 
                     E (Thermal)             CV                S
                      KCal/Mol        Cal/Mol-Kelvin    Cal/Mol-Kelvin
 Total                    8.953              6.881             52.456
 Electronic               0.000              0.000              0.000
 Translational            0.889              2.981             37.270
 Rotational               0.592              1.987             14.460
 Vibrational              7.472              1.913              0.726
                       Q            Log10(Q)             Ln(Q)
 Total Bot       0.293287D+05          4.467292         10.286320
 Total V=0       0.663921D+10          9.822117         22.616259
 Vib (Bot)       0.480812D-05         -5.318024        -12.245204
 Vib (V=0)       0.108843D+01          0.036800          0.084735
 Electronic      0.100000D+01          0.000000          0.000000
 Translational   0.114679D+08          7.059482         16.255059
 Rotational      0.531905D+03          2.725834          6.276465
 ***** Axes restored to original set *****
 -------------------------------------------------------------------
 Center     Atomic                   Forces (Hartrees/Bohr)
 Number     Number              X              Y              Z
 -------------------------------------------------------------------
      1        6          -0.000000705    0.000000160   -0.000000189
      2        8          -0.000009888    0.000002240   -0.000002652
      3        8           0.000010593   -0.000002399    0.000002842
 -------------------------------------------------------------------
 Cartesian Forces:  Max     0.000010593 RMS     0.000005125
 FormGI is forming the generalized inverse of G from B-inverse, IUseBI=4.

 GradGradGradGradGradGradGradGradGradGradGradGradGradGradGradGradGradGrad
 Berny optimization.
 Internal  Forces:  Max     0.000011227 RMS     0.000007679
 Search for a local minimum.
 Step number   1 out of a maximum of    2
 All quantities printed in internal units (Hartrees-Bohrs-Radians)
 Second derivative matrix not updated -- analytic derivatives used.
 The second derivative matrix:
                          R1        R2        A1        A2
           R1           1.06613
           R2           0.13160   1.06612
           A1           0.00000   0.00000   0.16744
           A2          -0.00000   0.00000  -0.00949   0.16421
 ITU=  0
     Eigenvalues ---    0.15620   0.17545   0.93453   1.19773
 Angle between quadratic step and forces=   0.55 degrees.
 Linear search not attempted -- first point.
 Iteration  1 RMS(Cart)=  0.00000641 RMS(Int)=  0.00000000
 Iteration  2 RMS(Cart)=  0.00000000 RMS(Int)=  0.00000000
 ClnCor:  largest displacement from symmetrization is 5.01D-12 for atom     1.
 Variable       Old X    -DE/DX   Delta X   Delta X   Delta X     New X
                                 (Linear)    (Quad)   (Total)
    R1        2.19780  -0.00001   0.00000  -0.00001  -0.00001   2.19779
    R2        2.19780  -0.00001   0.00000  -0.00001  -0.00001   2.19779
    A1        3.14159   0.00000   0.00000   0.00000  -0.00000   3.14159
    A2        3.14159   0.00000   0.00000   0.00000   0.00000   3.14159
         Item               Value     Threshold  Converged?
 Maximum Force            0.000011     0.000450     YES
 RMS     Force            0.000008     0.000300     YES
 Maximum Displacement     0.000009     0.001800     YES
 RMS     Displacement     0.000006     0.001200     YES
 Predicted change in Energy=-9.850020D-11
 Optimization completed.
    -- Stationary point found.
                           ----------------------------
                           !   Optimized Parameters   !
                           ! (Angstroms and Degrees)  !
 --------------------------                            --------------------------
 ! Name  Definition              Value          Derivative Info.                !
 --------------------------------------------------------------------------------
 ! R1    R(1,2)                  1.163          -DE/DX =    0.0                 !
 ! R2    R(1,3)                  1.163          -DE/DX =    0.0                 !
 ! A1    L(2,1,3,-2,-1)        180.0            -DE/DX =    0.0                 !
 ! A2    L(2,1,3,-3,-2)        180.0            -DE/DX =    0.0                 !
 --------------------------------------------------------------------------------
 GradGradGradGradGradGradGradGradGradGradGradGradGradGradGradGradGradGrad


 ----------------------------------------------------------------------

 Electric dipole moment (input orientation):
 (Debye = 10**-18 statcoulomb cm , SI units = C m)
                  (au)            (Debye)         (10**-30 SI)
   Tot        0.000000D+00      0.000000D+00      0.000000D+00
   x          0.000000D+00      0.000000D+00      0.000000D+00
   y          0.000000D+00      0.000000D+00      0.000000D+00
   z          0.000000D+00      0.000000D+00      0.000000D+00

 Dipole polarizability, Alpha (input orientation).
 (esu units = cm**3 , SI units = C**2 m**2 J**-1)
 Alpha(0;0):
               (au)            (10**-24 esu)      (10**-40 SI)
   iso        0.184958D+02      0.274080D+01      0.304955D+01
   aniso      0.242119D+02      0.358784D+01      0.399201D+01
   xx         0.319803D+02      0.473899D+01      0.527284D+01
   yx        -0.488222D+01     -0.723470D+00     -0.804969D+00
   yy         0.115310D+02      0.170872D+01      0.190121D+01
   zx         0.578204D+01      0.856809D+00      0.953329D+00
   zy        -0.130963D+01     -0.194067D+00     -0.215929D+00
   zz         0.119762D+02      0.177469D+01      0.197461D+01

 ----------------------------------------------------------------------

 Dipole orientation:
     6         -0.61039626          1.23944852         -5.27251517
     8         -0.61039626          1.23944852         -3.07471837
     8         -0.61039626          1.23944852         -7.47031293

 Electric dipole moment (dipole orientation):
 (Debye = 10**-18 statcoulomb cm , SI units = C m)
                  (au)            (Debye)         (10**-30 SI)
   Tot        0.000000D+00      0.000000D+00      0.000000D+00
   x          0.000000D+00      0.000000D+00      0.000000D+00
   y          0.000000D+00      0.000000D+00      0.000000D+00
   z          0.000000D+00      0.000000D+00      0.000000D+00

 Dipole polarizability, Alpha (dipole orientation).
 (esu units = cm**3 , SI units = C**2 m**2 J**-1)
 Alpha(0;0):
               (au)            (10**-24 esu)      (10**-40 SI)
   iso        0.184958D+02      0.274080D+01      0.304955D+01
   aniso      0.242119D+02      0.358784D+01      0.399201D+01
   xx         0.104252D+02      0.154485D+01      0.171888D+01
   yx         0.000000D+00      0.000000D+00      0.000000D+00
   yy         0.104252D+02      0.154485D+01      0.171888D+01
   zx         0.000000D+00      0.000000D+00      0.000000D+00
   zy         0.000000D+00      0.000000D+00      0.000000D+00
   zz         0.346371D+02      0.513269D+01      0.571089D+01

 ----------------------------------------------------------------------
 1\1\GINC-NODE2\Freq\RM062X\6-31+G(d,p)\C1O2\GONGKE2021\01-Jul-2023\0\\
 #N Geom=AllCheck Guess=TCheck SCRF=Check GenChk RM062X/6-31+G(d,p) Fre
 q\\structure\\0,1\C,-2.6205490084,1.1762797995,-0.2612299779\O,-1.5231
 89129,0.9277283588,0.0331307664\O,-3.7179093733,1.4248313501,-0.555590
 8524\\Version=ES64L-G16RevA.03\State=1-SG\HF=-188.512541\RMSD=5.193e-0
 9\RMSF=5.125e-06\ZeroPoint=0.0116417\Thermal=0.0142671\Dipole=0.000002
 5,-0.0000006,0.0000007\DipoleDeriv=3.4125509,-0.612214,0.7250482,-0.61
 2214,0.8482793,-0.164223,0.7250482,-0.164223,0.9041033,-1.7062753,0.30
 61071,-0.3625242,0.3061071,-0.4241392,0.0821115,-0.3625242,0.0821115,-
 0.4520512,-1.7062756,0.3061069,-0.362524,0.3061069,-0.4241401,0.082111
 5,-0.362524,0.0821115,-0.4520521\Polar=31.9802835,-4.8822187,11.531004
 5,5.7820366,-1.3096283,11.976184\Quadrupole=-2.2632628,1.1689914,1.094
 2714,0.8194429,-0.9704704,0.219811\PG=C*V [C*(O1C1O1)]\NImag=0\\1.6798
 4998,-0.34768171,0.22357759,0.41176123,-0.09326370,0.25528054,-0.83992
 667,0.17384130,-0.20588114,0.95311222,0.17384130,-0.11178862,0.0466319
 7,-0.20768043,0.08323822,-0.20588114,0.04663197,-0.12764013,0.24595700
 ,-0.05570913,0.10217532,-0.83992331,0.17384041,-0.20588009,-0.11318555
 ,0.03383913,-0.04007586,0.95310886,0.17384041,-0.11178897,0.04663173,0
 .03383913,0.02855040,0.00907716,-0.20767954,0.08323858,-0.20588009,0.0
 4663173,-0.12764041,-0.04007586,0.00907716,0.02546481,0.24595595,-0.05
 570889,0.10217560\\0.00000071,-0.00000016,0.00000019,0.00000989,-0.000
 00224,0.00000265,-0.00001059,0.00000240,-0.00000284\\\@


 WOMEN HOLD UP HALF THE SKY. -- MAO TSE TUNG
 Job cpu time:       0 days  0 hours  2 minutes 24.3 seconds.
 Elapsed time:       0 days  0 hours  0 minutes  7.7 seconds.
 File lengths (MBytes):  RWF=     10 Int=      0 D2E=      0 Chk=      2 Scr=      1
 Normal termination of Gaussian 16 at Sat Jul  1 02:37:16 2023.
