 Entering Gaussian System, Link 0=/opt/soft/g16/g16
 Initial command:
 /opt/soft/g16/l1.exe "/scratch/gongke2021/1-H-Tz-HCOO-/Gau-17746.inp" -scrdir="/scratch/gongke2021/1-H-Tz-HCOO-/"
 Entering Link 1 = /opt/soft/g16/l1.exe PID=     17747.
  
 Copyright (c) 1988,1990,1992,1993,1995,1998,2003,2009,2016,
            Gaussian, Inc.  All Rights Reserved.
  
 This is part of the Gaussian(R) 16 program.  It is based on
 the Gaussian(R) 09 system (copyright 2009, Gaussian, Inc.),
 the Gaussian(R) 03 system (copyright 2003, Gaussian, Inc.),
 the Gaussian(R) 98 system (copyright 1998, Gaussian, Inc.),
 the Gaussian(R) 94 system (copyright 1995, Gaussian, Inc.),
 the Gaussian 92(TM) system (copyright 1992, Gaussian, Inc.),
 the Gaussian 90(TM) system (copyright 1990, Gaussian, Inc.),
 the Gaussian 88(TM) system (copyright 1988, Gaussian, Inc.),
 the Gaussian 86(TM) system (copyright 1986, Carnegie Mellon
 University), and the Gaussian 82(TM) system (copyright 1983,
 Carnegie Mellon University). Gaussian is a federally registered
 trademark of Gaussian, Inc.
  
 This software contains proprietary and confidential information,
 including trade secrets, belonging to Gaussian, Inc.
  
 This software is provided under written license and may be
 used, copied, transmitted, or stored only in accord with that
 written license.
  
 The following legend is applicable only to US Government
 contracts under FAR:
  
                    RESTRICTED RIGHTS LEGEND
  
 Use, reproduction and disclosure by the US Government is
 subject to restrictions as set forth in subparagraphs (a)
 and (c) of the Commercial Computer Software - Restricted
 Rights clause in FAR 52.227-19.
  
 Gaussian, Inc.
 340 Quinnipiac St., Bldg. 40, Wallingford CT 06492
  
  
 ---------------------------------------------------------------
 Warning -- This program may not be used in any manner that
 competes with the business of Gaussian, Inc. or will provide
 assistance to any competitor of Gaussian, Inc.  The licensee
 of this program is prohibited from giving any competitor of
 Gaussian, Inc. access to this program.  By using this program,
 the user acknowledges that Gaussian, Inc. is engaged in the
 business of creating and licensing software in the field of
 computational chemistry and represents and warrants to the
 licensee that it is not a competitor of Gaussian, Inc. and that
 it will not use this program in any manner prohibited above.
 ---------------------------------------------------------------
  

 Cite this work as:
 Gaussian 16, Revision A.03,
 M. J. Frisch, G. W. Trucks, H. B. Schlegel, G. E. Scuseria, 
 M. A. Robb, J. R. Cheeseman, G. Scalmani, V. Barone, 
 G. A. Petersson, H. Nakatsuji, X. Li, M. Caricato, A. V. Marenich, 
 J. Bloino, B. G. Janesko, R. Gomperts, B. Mennucci, H. P. Hratchian, 
 J. V. Ortiz, A. F. Izmaylov, J. L. Sonnenberg, D. Williams-Young, 
 F. Ding, F. Lipparini, F. Egidi, J. Goings, B. Peng, A. Petrone, 
 T. Henderson, D. Ranasinghe, V. G. Zakrzewski, J. Gao, N. Rega, 
 G. Zheng, W. Liang, M. Hada, M. Ehara, K. Toyota, R. Fukuda, 
 J. Hasegawa, M. Ishida, T. Nakajima, Y. Honda, O. Kitao, H. Nakai, 
 T. Vreven, K. Throssell, J. A. Montgomery, Jr., J. E. Peralta, 
 F. Ogliaro, M. J. Bearpark, J. J. Heyd, E. N. Brothers, K. N. Kudin, 
 V. N. Staroverov, T. A. Keith, R. Kobayashi, J. Normand, 
 K. Raghavachari, A. P. Rendell, J. C. Burant, S. S. Iyengar, 
 J. Tomasi, M. Cossi, J. M. Millam, M. Klene, C. Adamo, R. Cammi, 
 J. W. Ochterski, R. L. Martin, K. Morokuma, O. Farkas, 
 J. B. Foresman, and D. J. Fox, Gaussian, Inc., Wallingford CT, 2016.
 
 ******************************************
 Gaussian 16:  ES64L-G16RevA.03 25-Dec-2016
                 5-Nov-2023 
 ******************************************
 %mem=10GB
 %nprocshared=20
 Will use up to   20 processors via shared memory.
 -----------------------------------------------------
 # opt freq 6-31+g(d,p) m062x scrf=(SMD,solvent=water)
 -----------------------------------------------------
 1/18=20,19=15,26=3,38=1/1,3;
 2/9=110,12=2,17=6,18=5,40=1/2;
 3/5=1,6=6,7=111,11=2,25=1,30=1,70=32201,71=1,72=1,74=-55/1,2,3;
 4//1;
 5/5=2,38=5,53=1/2;
 6/7=2,8=2,9=2,10=2,28=1/1;
 7//1,2,3,16;
 1/18=20,19=15,26=3/3(2);
 2/9=110/2;
 99//99;
 2/9=110/2;
 3/5=1,6=6,7=111,11=2,25=1,30=1,70=32205,71=1,72=1,74=-55/1,2,3;
 4/5=5,16=3,69=1/1;
 5/5=2,38=5,53=1/2;
 7//1,2,3,16;
 1/18=20,19=15,26=3/3(-5);
 2/9=110/2;
 6/7=2,8=2,9=2,10=2,19=2,28=1/1;
 99/9=1/99;
 ----------
 "Sketch 2"
 ----------
 Symbolic Z-matrix:
 Charge =  0 Multiplicity = 2
 H                    -1.1293    1.73848  -0.00013 
 C                    -1.34882  -0.13544   0.00019 
 O                    -1.8857    1.12093  -0.00033 
 O                    -2.04693  -1.13841  -0.00036 
 

 GradGradGradGradGradGradGradGradGradGradGradGradGradGradGradGradGradGrad
 Berny optimization.
 Initialization pass.
                           ----------------------------
                           !    Initial Parameters    !
                           ! (Angstroms and Degrees)  !
 --------------------------                            --------------------------
 ! Name  Definition              Value          Derivative Info.                !
 --------------------------------------------------------------------------------
 ! R1    R(1,3)                  0.9765         estimate D2E/DX2                !
 ! R2    R(2,3)                  1.3663         estimate D2E/DX2                !
 ! R3    R(2,4)                  1.222          estimate D2E/DX2                !
 ! A1    A(3,2,4)              122.022          estimate D2E/DX2                !
 ! A2    A(1,3,2)              106.0909         estimate D2E/DX2                !
 ! D1    D(4,2,3,1)           -179.9746         estimate D2E/DX2                !
 --------------------------------------------------------------------------------
 Trust Radius=3.00D-01 FncErr=1.00D-07 GrdErr=1.00D-06 EigMax=2.50D+02 EigMin=1.00D-04
 Number of steps in this run=     20 maximum allowed number of steps=    100.
 GradGradGradGradGradGradGradGradGradGradGradGradGradGradGradGradGradGrad

                          Input orientation:                          
 ---------------------------------------------------------------------
 Center     Atomic      Atomic             Coordinates (Angstroms)
 Number     Number       Type             X           Y           Z
 ---------------------------------------------------------------------
      1          1           0       -1.129302    1.738481   -0.000128
      2          6           0       -1.348819   -0.135436    0.000193
      3          8           0       -1.885702    1.120930   -0.000331
      4          8           0       -2.046931   -1.138410   -0.000357
 ---------------------------------------------------------------------
                    Distance matrix (angstroms):
                    1          2          3          4
     1  H    0.000000
     2  C    1.886731   0.000000
     3  O    0.976478   1.366272   0.000000
     4  O    3.019693   1.222014   2.265085   0.000000
 Stoichiometry    CHO2(2)
 Framework group  C1[X(CHO2)]
 Deg. of freedom     6
 Full point group                 C1      NOp   1
 Largest Abelian subgroup         C1      NOp   1
 Largest concise Abelian subgroup C1      NOp   1
                         Standard orientation:                         
 ---------------------------------------------------------------------
 Center     Atomic      Atomic             Coordinates (Angstroms)
 Number     Number       Type             X           Y           Z
 ---------------------------------------------------------------------
      1          1           0        1.761579    0.458808    0.000299
      2          6           0       -0.125006    0.435382   -0.000057
      3          8           0        1.068706   -0.229260   -0.000029
      4          8           0       -1.195149   -0.154627    0.000034
 ---------------------------------------------------------------------
 Rotational constants (GHZ):         136.9996053          11.3878503          10.5139009
 Standard basis: 6-31+G(d,p) (6D, 7F)
 There are    62 symmetry adapted cartesian basis functions of A   symmetry.
 There are    62 symmetry adapted basis functions of A   symmetry.
    62 basis functions,   103 primitive gaussians,    62 cartesian basis functions
    12 alpha electrons       11 beta electrons
       nuclear repulsion energy        61.7489558522 Hartrees.
 NAtoms=    4 NActive=    4 NUniq=    4 SFac= 1.00D+00 NAtFMM=   60 NAOKFM=F Big=F
 Integral buffers will be    131072 words long.
 Raffenetti 2 integral format.
 Two-electron integral symmetry is turned on.
 ------------------------------------------------------------------------------
 Polarizable Continuum Model (PCM)
 =================================
 Model                : PCM.
 Atomic radii         : SMD-Coulomb.
 Polarization charges : Total charges.
 Charge compensation  : None.
 Solution method      : On-the-fly selection.
 Cavity type          : VdW (van der Waals Surface) (Alpha=1.000).
 Cavity algorithm     : GePol (No added spheres)
                        Default sphere list used, NSphG=    4.
                        Lebedev-Laikov grids with approx.  5.0 points / Ang**2.
                        Smoothing algorithm: York/Karplus (Gamma=1.0000).
                        Polarization charges: spherical gaussians, with
                                              point-specific exponents (IZeta= 3).
                        Self-potential: point-specific (ISelfS= 7).
                        Self-field    : sphere-specific E.n sum rule (ISelfD= 2).
 1st derivatives      : Analytical E(r).r(x)/FMM algorithm (CHGder, D1EAlg=3).
                        Cavity 1st derivative terms included.
 Solvent              : Water, Eps=  78.355300 Eps(inf)=   1.777849
 ------------------------------------------------------------------------------
 Spheres list:
 ISph  on   Nord     Re0    Alpha      Xe            Ye            Ze
    1   H      1    1.2000  1.000      1.761579      0.458808      0.000299
    2   C      2    1.8500  1.000     -0.125006      0.435382     -0.000057
    3   O      3    1.5200  1.000      1.068706     -0.229260     -0.000029
    4   O      4    1.5200  1.000     -1.195149     -0.154627      0.000034
 ------------------------------------------------------------------------------
 ------------------------------------------------------------------------------
 Atomic radii for non-electrostatic terms: SMD-CDS.
 ------------------------------------------------------------------------------
 Nuclear repulsion after PCM non-electrostatic terms =       61.7571811560 Hartrees.
 One-electron integrals computed using PRISM.
 NBasis=    62 RedAO= T EigKep=  4.32D-03  NBF=    62
 NBsUse=    62 1.00D-06 EigRej= -1.00D+00 NBFU=    62
 ExpMin= 4.38D-02 ExpMax= 5.48D+03 ExpMxC= 8.25D+02 IAcc=3 IRadAn=         5 AccDes= 0.00D+00
 Harris functional with IExCor= 1009 and IRadAn=       5 diagonalized for initial guess.
 HarFok:  IExCor= 1009 AccDes= 0.00D+00 IRadAn=         5 IDoV= 1 UseB2=F ITyADJ=14
 ICtDFT=  3500011 ScaDFX=  1.000000  1.000000  1.000000  1.000000
 FoFCou: FMM=F IPFlag=           0 FMFlag=      100000 FMFlg1=           0
         NFxFlg=           0 DoJE=T BraDBF=F KetDBF=T FulRan=T
         wScrn=  0.000000 ICntrl=       500 IOpCl=  0 I1Cent=   200000004 NGrid=           0
         NMat0=    1 NMatS0=      1 NMatT0=    0 NMatD0=    1 NMtDS0=    0 NMtDT0=    0
 Petite list used in FoFCou.
 Initial guess <Sx>= 0.0000 <Sy>= 0.0000 <Sz>= 0.5000 <S**2>= 0.7500 S= 0.5000
 Keep R1 and R2 ints in memory in canonical form, NReq=21507342.
 Requested convergence on RMS density matrix=1.00D-08 within 128 cycles.
 Requested convergence on MAX density matrix=1.00D-06.
 Requested convergence on             energy=1.00D-06.
 No special actions if energy rises.
 Inv3:  Mode=1 IEnd=      541875.
 Iteration    1 A*A^-1 deviation from unit magnitude is 2.55D-15 for     78.
 Iteration    1 A*A^-1 deviation from orthogonality  is 1.22D-15 for    397    202.
 Iteration    1 A^-1*A deviation from unit magnitude is 2.33D-15 for     78.
 Iteration    1 A^-1*A deviation from orthogonality  is 1.05D-15 for    246    106.
 Error on total polarization charges =  0.02893
 SCF Done:  E(UM062X) =  -189.030617668     A.U. after   14 cycles
            NFock= 14  Conv=0.55D-08     -V/T= 2.0094
 <Sx>= 0.0000 <Sy>= 0.0000 <Sz>= 0.5000 <S**2>= 0.7544 S= 0.5022
 <L.S>=  0.00000000000    
 SMD-CDS (non-electrostatic) energy       (kcal/mol) =       5.16
 (included in total energy above)
 Annihilation of the first spin contaminant:
 S**2 before annihilation     0.7544,   after     0.7500

 **********************************************************************

            Population analysis using the SCF density.

 **********************************************************************

 Orbital symmetries:
 Alpha Orbitals:
       Occupied  (A) (A) (A) (A) (A) (A) (A) (A) (A) (A) (A) (A)
       Virtual   (A) (A) (A) (A) (A) (A) (A) (A) (A) (A) (A) (A)
                 (A) (A) (A) (A) (A) (A) (A) (A) (A) (A) (A) (A)
                 (A) (A) (A) (A) (A) (A) (A) (A) (A) (A) (A) (A)
                 (A) (A) (A) (A) (A) (A) (A) (A) (A) (A) (A) (A)
                 (A) (A)
 Beta  Orbitals:
       Occupied  (A) (A) (A) (A) (A) (A) (A) (A) (A) (A) (A)
       Virtual   (A) (A) (A) (A) (A) (A) (A) (A) (A) (A) (A) (A)
                 (A) (A) (A) (A) (A) (A) (A) (A) (A) (A) (A) (A)
                 (A) (A) (A) (A) (A) (A) (A) (A) (A) (A) (A) (A)
                 (A) (A) (A) (A) (A) (A) (A) (A) (A) (A) (A) (A)
                 (A) (A) (A)
 The electronic state is 2-A.
 Alpha  occ. eigenvalues --  -19.72956 -19.70473 -10.72094  -1.25719  -1.18334
 Alpha  occ. eigenvalues --   -0.72642  -0.61954  -0.58094  -0.54769  -0.48655
 Alpha  occ. eigenvalues --   -0.43189  -0.32512
 Alpha virt. eigenvalues --    0.01615   0.03606   0.04940   0.06914   0.07280
 Alpha virt. eigenvalues --    0.17360   0.18786   0.21372   0.22499   0.25075
 Alpha virt. eigenvalues --    0.25363   0.27179   0.30345   0.31659   0.35956
 Alpha virt. eigenvalues --    0.45310   0.65950   0.68568   0.78472   1.00106
 Alpha virt. eigenvalues --    1.08097   1.15352   1.18462   1.22497   1.24692
 Alpha virt. eigenvalues --    1.25930   1.32237   1.41152   1.48488   1.51468
 Alpha virt. eigenvalues --    1.54979   1.57395   1.65662   1.80119   1.84890
 Alpha virt. eigenvalues --    1.85201   2.07932   2.32106   2.33443   2.43859
 Alpha virt. eigenvalues --    2.55206   2.57623   2.69409   2.85241   2.91079
 Alpha virt. eigenvalues --    3.15626   3.45463   4.07633   4.13721   4.29622
  Beta  occ. eigenvalues --  -19.72608 -19.69881 -10.71175  -1.23952  -1.16491
  Beta  occ. eigenvalues --   -0.70875  -0.58274  -0.55092  -0.53606  -0.44024
  Beta  occ. eigenvalues --   -0.42777
  Beta virt. eigenvalues --   -0.08474   0.03380   0.04318   0.05149   0.06574
  Beta virt. eigenvalues --    0.07690   0.17047   0.17881   0.20938   0.22310
  Beta virt. eigenvalues --    0.24514   0.25293   0.27241   0.30752   0.32635
  Beta virt. eigenvalues --    0.36910   0.47025   0.68106   0.69216   0.79059
  Beta virt. eigenvalues --    1.00348   1.08512   1.16802   1.18671   1.23661
  Beta virt. eigenvalues --    1.25818   1.26028   1.33262   1.42664   1.49956
  Beta virt. eigenvalues --    1.52457   1.54955   1.58108   1.66528   1.81580
  Beta virt. eigenvalues --    1.85253   1.86338   2.09771   2.33409   2.34541
  Beta virt. eigenvalues --    2.44539   2.56813   2.58846   2.70361   2.85958
  Beta virt. eigenvalues --    2.92094   3.16483   3.45715   4.08126   4.14030
  Beta virt. eigenvalues --    4.36392
          Condensed to atoms (all electrons):
               1          2          3          4
     1  H    0.287942  -0.010835   0.257390   0.006623
     2  C   -0.010835   4.988236   0.146183   0.439925
     3  O    0.257390   0.146183   8.161636  -0.091088
     4  O    0.006623   0.439925  -0.091088   8.065790
          Atomic-Atomic Spin Densities.
               1          2          3          4
     1  H   -0.004310  -0.009170   0.010163  -0.000840
     2  C   -0.009170   1.009671  -0.177487  -0.118668
     3  O    0.010163  -0.177487   0.233914   0.009181
     4  O   -0.000840  -0.118668   0.009181   0.334367
 Mulliken charges and spin densities:
               1          2
     1  H    0.458881  -0.004157
     2  C    0.436491   0.704346
     3  O   -0.474122   0.075772
     4  O   -0.421250   0.224039
 Sum of Mulliken charges =  -0.00000   1.00000
 Mulliken charges and spin densities with hydrogens summed into heavy atoms:
               1          2
     2  C    0.436491   0.704346
     3  O   -0.015241   0.071615
     4  O   -0.421250   0.224039
 Electronic spatial extent (au):  <R**2>=            128.2691
 Charge=             -0.0000 electrons
 Dipole moment (field-independent basis, Debye):
    X=              3.8172    Y=              2.1580    Z=              0.0006  Tot=              4.3850
 Quadrupole moment (field-independent basis, Debye-Ang):
   XX=            -15.3324   YY=            -17.0285   ZZ=            -16.6240
   XY=              2.4015   XZ=              0.0016   YZ=              0.0005
 Traceless Quadrupole moment (field-independent basis, Debye-Ang):
   XX=              0.9959   YY=             -0.7002   ZZ=             -0.2957
   XY=              2.4015   XZ=              0.0016   YZ=              0.0005
 Octapole moment (field-independent basis, Debye-Ang**2):
  XXX=             17.2912  YYY=             -1.5782  ZZZ=              0.0005  XYY=              1.7170
  XXY=              4.3131  XXZ=              0.0029  XZZ=              0.5486  YZZ=             -0.1624
  YYZ=              0.0004  XYZ=              0.0007
 Hexadecapole moment (field-independent basis, Debye-Ang**3):
 XXXX=            -92.5304 YYYY=            -27.3054 ZZZZ=            -14.8406 XXXY=              8.5546
 XXXZ=              0.0055 YYYX=              2.0455 YYYZ=              0.0007 ZZZX=              0.0008
 ZZZY=              0.0004 XXYY=            -21.0733 XXZZ=            -21.3073 YYZZ=             -6.8662
 XXYZ=              0.0013 YYXZ=              0.0006 ZZXY=              0.5798
 N-N= 6.175718115597D+01 E-N=-5.676105466719D+02  KE= 1.872657023605D+02
                          Isotropic Fermi Contact Couplings
        Atom                 a.u.       MegaHertz       Gauss      10(-4) cm-1
     1  H(1)              -0.00047      -2.10009      -0.74936      -0.70051
     2  C(13)              0.57713     648.80869     231.51107     216.41928
     3  O(17)              0.05079     -30.78952     -10.98647     -10.27028
     4  O(17)              0.08629     -52.30707     -18.66446     -17.44776
 --------------------------------------------------------
       Center         ----  Spin Dipole Couplings  ----
                      3XX-RR        3YY-RR        3ZZ-RR
 --------------------------------------------------------
     1   Atom        0.044606     -0.010323     -0.034283
     2   Atom       -0.307881      0.559908     -0.252027
     3   Atom        0.018354      0.369547     -0.387901
     4   Atom       -0.524418      1.194403     -0.669985
 --------------------------------------------------------
                        XY            XZ            YZ
 --------------------------------------------------------
     1   Atom        0.017529      0.000027      0.000011
     2   Atom        0.139519     -0.000003     -0.000065
     3   Atom       -0.489155      0.000090     -0.000108
     4   Atom       -0.178379      0.000008     -0.000098
 --------------------------------------------------------


 ---------------------------------------------------------------------------------
              Anisotropic Spin Dipole Couplings in Principal Axis System
 ---------------------------------------------------------------------------------

       Atom             a.u.   MegaHertz   Gauss  10(-4) cm-1        Axes

              Baa    -0.0343   -18.292    -6.527    -6.101 -0.0003 -0.0002  1.0000
     1 H(1)   Bbb    -0.0154    -8.238    -2.940    -2.748 -0.2802  0.9599  0.0001
              Bcc     0.0497    26.530     9.467     8.849  0.9599  0.2802  0.0003
 
              Baa    -0.3298   -44.251   -15.790   -14.760  0.9879 -0.1549 -0.0001
     2 C(13)  Bbb    -0.2520   -33.820   -12.068   -11.281  0.0001  0.0001  1.0000
              Bcc     0.5818    78.070    27.857    26.041  0.1549  0.9879 -0.0001
 
              Baa    -0.3879    28.068    10.015     9.363 -0.0002 -0.0000  1.0000
     3 O(17)  Bbb    -0.3258    23.572     8.411     7.863  0.8179  0.5754  0.0002
              Bcc     0.7137   -51.641   -18.427   -17.225 -0.5754  0.8179 -0.0001
 
              Baa    -0.6700    48.480    17.299    16.171  0.0000  0.0001  1.0000
     4 O(17)  Bbb    -0.5427    39.272    14.013    13.100  0.9948  0.1021 -0.0000
              Bcc     1.2127   -87.752   -31.312   -29.271 -0.1021  0.9948 -0.0001
 

 ---------------------------------------------------------------------------------

 D1PCM: PCM CHGder 1st derivatives, ID1Alg=3 FixD1E=F DoIter=F DoCFld=F I1PDM=0.
 Calling FoFJK, ICntrl=      2127 FMM=F ISym2X=0 I1Cent= 0 IOpClX= 1 NMat=1 NMatS=1 NMatT=0.
 ***** Axes restored to original set *****
 -------------------------------------------------------------------
 Center     Atomic                   Forces (Hartrees/Bohr)
 Number     Number              X              Y              Z
 -------------------------------------------------------------------
      1        1          -0.004555038    0.004061981    0.000001612
      2        6          -0.061521649   -0.018735148   -0.000056519
      3        8           0.026889379   -0.025097438    0.000017106
      4        8           0.039187307    0.039770605    0.000037801
 -------------------------------------------------------------------
 Cartesian Forces:  Max     0.061521649 RMS     0.026838154

 GradGradGradGradGradGradGradGradGradGradGradGradGradGradGradGradGradGrad
 Berny optimization.
 FormGI is forming the generalized inverse of G from B-inverse, IUseBI=4.
 Internal  Forces:  Max     0.054967891 RMS     0.027064580
 Search for a local minimum.
 Step number   1 out of a maximum of   20
 All quantities printed in internal units (Hartrees-Bohrs-Radians)
 Mixed Optimization -- RFO/linear search
 Second derivative matrix not updated -- first step.
 The second derivative matrix:
                          R1        R2        R3        A1        A2
           R1           0.52075
           R2           0.00000   0.51700
           R3           0.00000   0.00000   0.94497
           A1           0.00000   0.00000   0.00000   0.25000
           A2           0.00000   0.00000   0.00000   0.00000   0.16000
           D1           0.00000   0.00000   0.00000   0.00000   0.00000
                          D1
           D1           0.02138
 ITU=  0
     Eigenvalues ---    0.02138   0.16000   0.25000   0.51700   0.52075
     Eigenvalues ---    0.94497
 RFO step:  Lambda=-7.17980505D-03 EMin= 2.13793727D-02
 Linear search not attempted -- first point.
 Iteration  1 RMS(Cart)=  0.04033479 RMS(Int)=  0.00152873
 Iteration  2 RMS(Cart)=  0.00211058 RMS(Int)=  0.00000100
 Iteration  3 RMS(Cart)=  0.00000082 RMS(Int)=  0.00000000
 Variable       Old X    -DE/DX   Delta X   Delta X   Delta X     New X
                                 (Linear)    (Quad)   (Total)
    R1        1.84528  -0.00087   0.00000  -0.00165  -0.00165   1.84363
    R2        2.58188  -0.02824   0.00000  -0.05387  -0.05387   2.52801
    R3        2.30927  -0.05497   0.00000  -0.05773  -0.05773   2.25154
    A1        2.12969   0.02139   0.00000   0.08317   0.08317   2.21286
    A2        1.85164   0.01085   0.00000   0.06493   0.06493   1.91656
    D1       -3.14115  -0.00001   0.00000  -0.00035  -0.00035  -3.14150
         Item               Value     Threshold  Converged?
 Maximum Force            0.054968     0.000450     NO 
 RMS     Force            0.027065     0.000300     NO 
 Maximum Displacement     0.077816     0.001800     NO 
 RMS     Displacement     0.039691     0.001200     NO 
 Predicted change in Energy=-3.652264D-03
 GradGradGradGradGradGradGradGradGradGradGradGradGradGradGradGradGradGrad

                          Input orientation:                          
 ---------------------------------------------------------------------
 Center     Atomic      Atomic             Coordinates (Angstroms)
 Number     Number       Type             X           Y           Z
 ---------------------------------------------------------------------
      1          1           0       -1.126769    1.750016   -0.000042
      2          6           0       -1.389998   -0.135932    0.000061
      3          8           0       -1.866604    1.114053   -0.000381
      4          8           0       -2.027384   -1.142573   -0.000261
 ---------------------------------------------------------------------
                    Distance matrix (angstroms):
                    1          2          3          4
     1  H    0.000000
     2  C    1.904230   0.000000
     3  O    0.975605   1.337765   0.000000
     4  O    3.029551   1.191464   2.262346   0.000000
 Stoichiometry    CHO2(2)
 Framework group  C1[X(CHO2)]
 Deg. of freedom     6
 Full point group                 C1      NOp   1
 Largest Abelian subgroup         C1      NOp   1
 Largest concise Abelian subgroup C1      NOp   1
                         Standard orientation:                         
 ---------------------------------------------------------------------
 Center     Atomic      Atomic             Coordinates (Angstroms)
 Number     Number       Type             X           Y           Z
 ---------------------------------------------------------------------
      1          1           0        1.776807    0.455669    0.000061
      2          6           0       -0.126339    0.391416   -0.000012
      3          8           0        1.066853   -0.213488   -0.000006
      4          8           0       -1.194200   -0.137033    0.000007
 ---------------------------------------------------------------------
 Rotational constants (GHZ):         165.3583710          11.3987898          10.6636999
 Standard basis: 6-31+G(d,p) (6D, 7F)
 There are    62 symmetry adapted cartesian basis functions of A   symmetry.
 There are    62 symmetry adapted basis functions of A   symmetry.
    62 basis functions,   103 primitive gaussians,    62 cartesian basis functions
    12 alpha electrons       11 beta electrons
       nuclear repulsion energy        62.6800324458 Hartrees.
 NAtoms=    4 NActive=    4 NUniq=    4 SFac= 1.00D+00 NAtFMM=   60 NAOKFM=F Big=F
 Integral buffers will be    131072 words long.
 Raffenetti 2 integral format.
 Two-electron integral symmetry is turned on.
 ------------------------------------------------------------------------------
 Polarizable Continuum Model (PCM)
 =================================
 Model                : PCM.
 Atomic radii         : SMD-Coulomb.
 Polarization charges : Total charges.
 Charge compensation  : None.
 Solution method      : On-the-fly selection.
 Cavity type          : VdW (van der Waals Surface) (Alpha=1.000).
 Cavity algorithm     : GePol (No added spheres)
                        Default sphere list used, NSphG=    4.
                        Lebedev-Laikov grids with approx.  5.0 points / Ang**2.
                        Smoothing algorithm: York/Karplus (Gamma=1.0000).
                        Polarization charges: spherical gaussians, with
                                              point-specific exponents (IZeta= 3).
                        Self-potential: point-specific (ISelfS= 7).
                        Self-field    : sphere-specific E.n sum rule (ISelfD= 2).
 1st derivatives      : Analytical E(r).r(x)/FMM algorithm (CHGder, D1EAlg=3).
                        Cavity 1st derivative terms included.
 Solvent              : Water, Eps=  78.355300 Eps(inf)=   1.777849
 ------------------------------------------------------------------------------
 Spheres list:
 ISph  on   Nord     Re0    Alpha      Xe            Ye            Ze
    1   H      1    1.2000  1.000      1.776807      0.455669      0.000061
    2   C      2    1.8500  1.000     -0.126339      0.391416     -0.000012
    3   O      3    1.5200  1.000      1.066853     -0.213488     -0.000006
    4   O      4    1.5200  1.000     -1.194200     -0.137033      0.000007
 ------------------------------------------------------------------------------
 ------------------------------------------------------------------------------
 Atomic radii for non-electrostatic terms: SMD-CDS.
 ------------------------------------------------------------------------------
 Nuclear repulsion after PCM non-electrostatic terms =       62.6885927587 Hartrees.
 One-electron integrals computed using PRISM.
 NBasis=    62 RedAO= T EigKep=  4.12D-03  NBF=    62
 NBsUse=    62 1.00D-06 EigRej= -1.00D+00 NBFU=    62
 Initial guess from the checkpoint file:  "/scratch/gongke2021/1-H-Tz-HCOO-/Gau-17747.chk"
 B after Tr=     0.000000   -0.000000   -0.000000
         Rot=    1.000000    0.000005   -0.000000    0.000228 Ang=   0.03 deg.
 Initial guess <Sx>= 0.0000 <Sy>= 0.0000 <Sz>= 0.5000 <S**2>= 0.7543 S= 0.5021
 ExpMin= 4.38D-02 ExpMax= 5.48D+03 ExpMxC= 8.25D+02 IAcc=2 IRadAn=         4 AccDes= 0.00D+00
 Harris functional with IExCor= 1009 and IRadAn=       4 diagonalized for initial guess.
 HarFok:  IExCor= 1009 AccDes= 0.00D+00 IRadAn=         4 IDoV= 1 UseB2=F ITyADJ=14
 ICtDFT=  3500011 ScaDFX=  1.000000  1.000000  1.000000  1.000000
 FoFCou: FMM=F IPFlag=           0 FMFlag=      100000 FMFlg1=           0
         NFxFlg=           0 DoJE=T BraDBF=F KetDBF=T FulRan=T
         wScrn=  0.000000 ICntrl=       500 IOpCl=  0 I1Cent=   200000004 NGrid=           0
         NMat0=    1 NMatS0=      1 NMatT0=    0 NMatD0=    1 NMtDS0=    0 NMtDT0=    0
 Petite list used in FoFCou.
 Keep R1 and R2 ints in memory in canonical form, NReq=21507342.
 Requested convergence on RMS density matrix=1.00D-08 within 128 cycles.
 Requested convergence on MAX density matrix=1.00D-06.
 Requested convergence on             energy=1.00D-06.
 No special actions if energy rises.
 Inv3:  Mode=1 IEnd=      534252.
 Iteration    1 A*A^-1 deviation from unit magnitude is 2.44D-15 for    184.
 Iteration    1 A*A^-1 deviation from orthogonality  is 1.64D-15 for    364     40.
 Iteration    1 A^-1*A deviation from unit magnitude is 2.66D-15 for    202.
 Iteration    1 A^-1*A deviation from orthogonality  is 9.44D-16 for    208    206.
 Error on total polarization charges =  0.02929
 SCF Done:  E(UM062X) =  -189.034806809     A.U. after   13 cycles
            NFock= 13  Conv=0.60D-08     -V/T= 2.0086
 <Sx>= 0.0000 <Sy>= 0.0000 <Sz>= 0.5000 <S**2>= 0.7541 S= 0.5020
 <L.S>=  0.00000000000    
 SMD-CDS (non-electrostatic) energy       (kcal/mol) =       5.37
 (included in total energy above)
 Annihilation of the first spin contaminant:
 S**2 before annihilation     0.7541,   after     0.7500
 D1PCM: PCM CHGder 1st derivatives, ID1Alg=3 FixD1E=F DoIter=F DoCFld=F I1PDM=0.
 Calling FoFJK, ICntrl=      2127 FMM=F ISym2X=0 I1Cent= 0 IOpClX= 1 NMat=1 NMatS=1 NMatT=0.
 ***** Axes restored to original set *****
 -------------------------------------------------------------------
 Center     Atomic                   Forces (Hartrees/Bohr)
 Number     Number              X              Y              Z
 -------------------------------------------------------------------
      1        1          -0.001126494   -0.000792169    0.000000562
      2        6          -0.007652878    0.007435141   -0.000007406
      3        8           0.005840222   -0.011483011    0.000003973
      4        8           0.002939150    0.004840039    0.000002871
 -------------------------------------------------------------------
 Cartesian Forces:  Max     0.011483011 RMS     0.005113518

 GradGradGradGradGradGradGradGradGradGradGradGradGradGradGradGradGradGrad
 Berny optimization.
 Using GEDIIS/GDIIS optimizer.
 FormGI is forming the generalized inverse of G from B-inverse, IUseBI=4.
 Internal  Forces:  Max     0.013142700 RMS     0.005871212
 Search for a local minimum.
 Step number   2 out of a maximum of   20
 All quantities printed in internal units (Hartrees-Bohrs-Radians)
 Mixed Optimization -- RFO/linear search
 Update second derivatives using D2CorX and points    1    2
 DE= -4.19D-03 DEPred=-3.65D-03 R= 1.15D+00
 TightC=F SS=  1.41D+00  RLast= 1.32D-01 DXNew= 5.0454D-01 3.9540D-01
 Trust test= 1.15D+00 RLast= 1.32D-01 DXMaxT set to 3.95D-01
 The second derivative matrix:
                          R1        R2        R3        A1        A2
           R1           0.52069
           R2          -0.00463   0.44414
           R3          -0.01069  -0.09421   0.91881
           A1           0.00431   0.02900  -0.01261   0.26470
           A2           0.00213   0.01498  -0.00468   0.00664   0.16297
           D1          -0.00000  -0.00001   0.00000  -0.00001  -0.00000
                          D1
           D1           0.02138
 ITU=  1  0
 Use linear search instead of GDIIS.
     Eigenvalues ---    0.02138   0.16190   0.26020   0.43067   0.52094
     Eigenvalues ---    0.93760
 RFO step:  Lambda=-3.05173265D-04 EMin= 2.13793742D-02
 Quartic linear search produced a step of  0.15435.
 Iteration  1 RMS(Cart)=  0.01330137 RMS(Int)=  0.00000865
 Iteration  2 RMS(Cart)=  0.00000579 RMS(Int)=  0.00000000
 Iteration  3 RMS(Cart)=  0.00000000 RMS(Int)=  0.00000000
 Variable       Old X    -DE/DX   Delta X   Delta X   Delta X     New X
                                 (Linear)    (Quad)   (Total)
    R1        1.84363  -0.00138  -0.00025  -0.00284  -0.00310   1.84053
    R2        2.52801  -0.01314  -0.00832  -0.02271  -0.03102   2.49699
    R3        2.25154  -0.00566  -0.00891  -0.00013  -0.00904   2.24250
    A1        2.21286  -0.00022   0.01284  -0.01227   0.00057   2.21343
    A2        1.91656   0.00026   0.01002  -0.00781   0.00221   1.91877
    D1       -3.14150  -0.00000  -0.00005   0.00002  -0.00003  -3.14153
         Item               Value     Threshold  Converged?
 Maximum Force            0.013143     0.000450     NO 
 RMS     Force            0.005871     0.000300     NO 
 Maximum Displacement     0.018242     0.001800     NO 
 RMS     Displacement     0.013301     0.001200     NO 
 Predicted change in Energy=-2.380056D-04
 GradGradGradGradGradGradGradGradGradGradGradGradGradGradGradGradGradGrad

                          Input orientation:                          
 ---------------------------------------------------------------------
 Center     Atomic      Atomic             Coordinates (Angstroms)
 Number     Number       Type             X           Y           Z
 ---------------------------------------------------------------------
      1          1           0       -1.128641    1.742563   -0.000034
      2          6           0       -1.392251   -0.129007    0.000049
      3          8           0       -1.864868    1.104928   -0.000385
      4          8           0       -2.024994   -1.132919   -0.000253
 ---------------------------------------------------------------------
                    Distance matrix (angstroms):
                    1          2          3          4
     1  H    0.000000
     2  C    1.890043   0.000000
     3  O    0.973965   1.321349   0.000000
     4  O    3.011951   1.186678   2.243569   0.000000
 Stoichiometry    CHO2(2)
 Framework group  C1[X(CHO2)]
 Deg. of freedom     6
 Full point group                 C1      NOp   1
 Largest Abelian subgroup         C1      NOp   1
 Largest concise Abelian subgroup C1      NOp   1
                         Standard orientation:                         
 ---------------------------------------------------------------------
 Center     Atomic      Atomic             Coordinates (Angstroms)
 Number     Number       Type             X           Y           Z
 ---------------------------------------------------------------------
      1          1           0        1.768012    0.451849    0.000039
      2          6           0       -0.120953    0.388010   -0.000008
      3          8           0        1.055965   -0.212678   -0.000004
      4          8           0       -1.186252   -0.134811    0.000005
 ---------------------------------------------------------------------
 Rotational constants (GHZ):         168.1246142          11.5867478          10.8397015
 Standard basis: 6-31+G(d,p) (6D, 7F)
 There are    62 symmetry adapted cartesian basis functions of A   symmetry.
 There are    62 symmetry adapted basis functions of A   symmetry.
    62 basis functions,   103 primitive gaussians,    62 cartesian basis functions
    12 alpha electrons       11 beta electrons
       nuclear repulsion energy        63.1551902718 Hartrees.
 NAtoms=    4 NActive=    4 NUniq=    4 SFac= 1.00D+00 NAtFMM=   60 NAOKFM=F Big=F
 Integral buffers will be    131072 words long.
 Raffenetti 2 integral format.
 Two-electron integral symmetry is turned on.
 ------------------------------------------------------------------------------
 Polarizable Continuum Model (PCM)
 =================================
 Model                : PCM.
 Atomic radii         : SMD-Coulomb.
 Polarization charges : Total charges.
 Charge compensation  : None.
 Solution method      : On-the-fly selection.
 Cavity type          : VdW (van der Waals Surface) (Alpha=1.000).
 Cavity algorithm     : GePol (No added spheres)
                        Default sphere list used, NSphG=    4.
                        Lebedev-Laikov grids with approx.  5.0 points / Ang**2.
                        Smoothing algorithm: York/Karplus (Gamma=1.0000).
                        Polarization charges: spherical gaussians, with
                                              point-specific exponents (IZeta= 3).
                        Self-potential: point-specific (ISelfS= 7).
                        Self-field    : sphere-specific E.n sum rule (ISelfD= 2).
 1st derivatives      : Analytical E(r).r(x)/FMM algorithm (CHGder, D1EAlg=3).
                        Cavity 1st derivative terms included.
 Solvent              : Water, Eps=  78.355300 Eps(inf)=   1.777849
 ------------------------------------------------------------------------------
 Spheres list:
 ISph  on   Nord     Re0    Alpha      Xe            Ye            Ze
    1   H      1    1.2000  1.000      1.768012      0.451849      0.000039
    2   C      2    1.8500  1.000     -0.120953      0.388010     -0.000008
    3   O      3    1.5200  1.000      1.055965     -0.212678     -0.000004
    4   O      4    1.5200  1.000     -1.186252     -0.134811      0.000005
 ------------------------------------------------------------------------------
 ------------------------------------------------------------------------------
 Atomic radii for non-electrostatic terms: SMD-CDS.
 ------------------------------------------------------------------------------
 Nuclear repulsion after PCM non-electrostatic terms =       63.1638645376 Hartrees.
 One-electron integrals computed using PRISM.
 NBasis=    62 RedAO= T EigKep=  3.99D-03  NBF=    62
 NBsUse=    62 1.00D-06 EigRej= -1.00D+00 NBFU=    62
 Initial guess from the checkpoint file:  "/scratch/gongke2021/1-H-Tz-HCOO-/Gau-17747.chk"
 B after Tr=    -0.000000   -0.000000    0.000000
         Rot=    1.000000    0.000000   -0.000000    0.000735 Ang=   0.08 deg.
 Initial guess <Sx>= 0.0000 <Sy>= 0.0000 <Sz>= 0.5000 <S**2>= 0.7540 S= 0.5020
 Keep R1 and R2 ints in memory in canonical form, NReq=21507342.
 Requested convergence on RMS density matrix=1.00D-08 within 128 cycles.
 Requested convergence on MAX density matrix=1.00D-06.
 Requested convergence on             energy=1.00D-06.
 No special actions if energy rises.
 Inv3:  Mode=1 IEnd=      529200.
 Iteration    1 A*A^-1 deviation from unit magnitude is 3.55D-15 for    181.
 Iteration    1 A*A^-1 deviation from orthogonality  is 1.80D-15 for    380    148.
 Iteration    1 A^-1*A deviation from unit magnitude is 2.66D-15 for    201.
 Iteration    1 A^-1*A deviation from orthogonality  is 8.88D-16 for    205    163.
 Error on total polarization charges =  0.02934
 SCF Done:  E(UM062X) =  -189.035020184     A.U. after   12 cycles
            NFock= 12  Conv=0.95D-08     -V/T= 2.0083
 <Sx>= 0.0000 <Sy>= 0.0000 <Sz>= 0.5000 <S**2>= 0.7540 S= 0.5020
 <L.S>=  0.00000000000    
 SMD-CDS (non-electrostatic) energy       (kcal/mol) =       5.44
 (included in total energy above)
 Annihilation of the first spin contaminant:
 S**2 before annihilation     0.7540,   after     0.7500
 D1PCM: PCM CHGder 1st derivatives, ID1Alg=3 FixD1E=F DoIter=F DoCFld=F I1PDM=0.
 Calling FoFJK, ICntrl=      2127 FMM=F ISym2X=0 I1Cent= 0 IOpClX= 1 NMat=1 NMatS=1 NMatT=0.
 ***** Axes restored to original set *****
 -------------------------------------------------------------------
 Center     Atomic                   Forces (Hartrees/Bohr)
 Number     Number              X              Y              Z
 -------------------------------------------------------------------
      1        1          -0.000484347    0.000839946    0.000000346
      2        6           0.001363951    0.005739344   -0.000000741
      3        8           0.001905988   -0.000575728    0.000000619
      4        8          -0.002785592   -0.006003562   -0.000000224
 -------------------------------------------------------------------
 Cartesian Forces:  Max     0.006003562 RMS     0.002637977

 GradGradGradGradGradGradGradGradGradGradGradGradGradGradGradGradGradGrad
 Berny optimization.
 Using GEDIIS/GDIIS optimizer.
 FormGI is forming the generalized inverse of G from B-inverse, IUseBI=4.
 Internal  Forces:  Max     0.006568459 RMS     0.002878637
 Search for a local minimum.
 Step number   3 out of a maximum of   20
 All quantities printed in internal units (Hartrees-Bohrs-Radians)
 Mixed Optimization -- RFO/linear search
 Update second derivatives using D2CorX and points    1    2    3
 DE= -2.13D-04 DEPred=-2.38D-04 R= 8.97D-01
 TightC=F SS=  1.41D+00  RLast= 3.25D-02 DXNew= 6.6498D-01 9.7628D-02
 Trust test= 8.97D-01 RLast= 3.25D-02 DXMaxT set to 3.95D-01
 The second derivative matrix:
                          R1        R2        R3        A1        A2
           R1           0.52130
           R2          -0.00360   0.40645
           R3           0.00873   0.04657   1.19860
           A1           0.00793   0.06483   0.02281   0.26353
           A2           0.00577   0.04978   0.03009   0.00651   0.16351
           D1          -0.00000  -0.00001   0.00002  -0.00000   0.00000
                          D1
           D1           0.02138
 ITU=  1  1  0
 Use linear search instead of GDIIS.
     Eigenvalues ---    0.02138   0.15275   0.23986   0.43599   0.52152
     Eigenvalues ---    1.20326
 RFO step:  Lambda=-6.35222558D-05 EMin= 2.13793749D-02
 Quartic linear search produced a step of -0.08694.
 Iteration  1 RMS(Cart)=  0.00596876 RMS(Int)=  0.00001838
 Iteration  2 RMS(Cart)=  0.00002004 RMS(Int)=  0.00000000
 Iteration  3 RMS(Cart)=  0.00000000 RMS(Int)=  0.00000000
 Variable       Old X    -DE/DX   Delta X   Delta X   Delta X     New X
                                 (Linear)    (Quad)   (Total)
    R1        1.84053   0.00019   0.00027  -0.00026   0.00001   1.84054
    R2        2.49699  -0.00027   0.00270  -0.00659  -0.00389   2.49310
    R3        2.24250   0.00657   0.00079   0.00442   0.00521   2.24771
    A1        2.21343   0.00186  -0.00005   0.00736   0.00731   2.22074
    A2        1.91877   0.00173  -0.00019   0.01074   0.01055   1.92932
    D1       -3.14153  -0.00000   0.00000  -0.00008  -0.00008   3.14157
         Item               Value     Threshold  Converged?
 Maximum Force            0.006568     0.000450     NO 
 RMS     Force            0.002879     0.000300     NO 
 Maximum Displacement     0.008705     0.001800     NO 
 RMS     Displacement     0.005956     0.001200     NO 
 Predicted change in Energy=-3.347316D-05
 GradGradGradGradGradGradGradGradGradGradGradGradGradGradGradGradGradGrad

                          Input orientation:                          
 ---------------------------------------------------------------------
 Center     Atomic      Atomic             Coordinates (Angstroms)
 Number     Number       Type             X           Y           Z
 ---------------------------------------------------------------------
      1          1           0       -1.129169    1.747169   -0.000017
      2          6           0       -1.394601   -0.129118    0.000025
      3          8           0       -1.861326    1.104858   -0.000396
      4          8           0       -2.025658   -1.137345   -0.000235
 ---------------------------------------------------------------------
                    Distance matrix (angstroms):
                    1          2          3          4
     1  H    0.000000
     2  C    1.894969   0.000000
     3  O    0.973970   1.319291   0.000000
     4  O    3.020615   1.189435   2.248217   0.000000
 Stoichiometry    CHO2(2)
 Framework group  C1[X(CHO2)]
 Deg. of freedom     6
 Full point group                 C1      NOp   1
 Largest Abelian subgroup         C1      NOp   1
 Largest concise Abelian subgroup C1      NOp   1
                         Standard orientation:                         
 ---------------------------------------------------------------------
 Center     Atomic      Atomic             Coordinates (Angstroms)
 Number     Number       Type             X           Y           Z
 ---------------------------------------------------------------------
      1          1           0        1.774642    0.447324   -0.000011
      2          6           0       -0.119314    0.385377    0.000002
      3          8           0        1.057260   -0.211449    0.000001
      4          8           0       -1.189605   -0.133500   -0.000001
 ---------------------------------------------------------------------
 Rotational constants (GHZ):         170.5140214          11.5366719          10.8055854
 Standard basis: 6-31+G(d,p) (6D, 7F)
 There are    62 symmetry adapted cartesian basis functions of A   symmetry.
 There are    62 symmetry adapted basis functions of A   symmetry.
    62 basis functions,   103 primitive gaussians,    62 cartesian basis functions
    12 alpha electrons       11 beta electrons
       nuclear repulsion energy        63.0959318551 Hartrees.
 NAtoms=    4 NActive=    4 NUniq=    4 SFac= 1.00D+00 NAtFMM=   60 NAOKFM=F Big=F
 Integral buffers will be    131072 words long.
 Raffenetti 2 integral format.
 Two-electron integral symmetry is turned on.
 ------------------------------------------------------------------------------
 Polarizable Continuum Model (PCM)
 =================================
 Model                : PCM.
 Atomic radii         : SMD-Coulomb.
 Polarization charges : Total charges.
 Charge compensation  : None.
 Solution method      : On-the-fly selection.
 Cavity type          : VdW (van der Waals Surface) (Alpha=1.000).
 Cavity algorithm     : GePol (No added spheres)
                        Default sphere list used, NSphG=    4.
                        Lebedev-Laikov grids with approx.  5.0 points / Ang**2.
                        Smoothing algorithm: York/Karplus (Gamma=1.0000).
                        Polarization charges: spherical gaussians, with
                                              point-specific exponents (IZeta= 3).
                        Self-potential: point-specific (ISelfS= 7).
                        Self-field    : sphere-specific E.n sum rule (ISelfD= 2).
 1st derivatives      : Analytical E(r).r(x)/FMM algorithm (CHGder, D1EAlg=3).
                        Cavity 1st derivative terms included.
 Solvent              : Water, Eps=  78.355300 Eps(inf)=   1.777849
 ------------------------------------------------------------------------------
 Spheres list:
 ISph  on   Nord     Re0    Alpha      Xe            Ye            Ze
    1   H      1    1.2000  1.000      1.774642      0.447324     -0.000011
    2   C      2    1.8500  1.000     -0.119314      0.385377      0.000002
    3   O      3    1.5200  1.000      1.057260     -0.211449      0.000001
    4   O      4    1.5200  1.000     -1.189605     -0.133500     -0.000001
 ------------------------------------------------------------------------------
 ------------------------------------------------------------------------------
 Atomic radii for non-electrostatic terms: SMD-CDS.
 ------------------------------------------------------------------------------
 Nuclear repulsion after PCM non-electrostatic terms =       63.1046171017 Hartrees.
 One-electron integrals computed using PRISM.
 NBasis=    62 RedAO= T EigKep=  4.04D-03  NBF=    62
 NBsUse=    62 1.00D-06 EigRej= -1.00D+00 NBFU=    62
 Initial guess from the checkpoint file:  "/scratch/gongke2021/1-H-Tz-HCOO-/Gau-17747.chk"
 B after Tr=    -0.000000   -0.000000   -0.000000
         Rot=    1.000000   -0.000000   -0.000000    0.000327 Ang=   0.04 deg.
 Initial guess <Sx>= 0.0000 <Sy>= 0.0000 <Sz>= 0.5000 <S**2>= 0.7540 S= 0.5020
 Keep R1 and R2 ints in memory in canonical form, NReq=21507342.
 Requested convergence on RMS density matrix=1.00D-08 within 128 cycles.
 Requested convergence on MAX density matrix=1.00D-06.
 Requested convergence on             energy=1.00D-06.
 No special actions if energy rises.
 Inv3:  Mode=1 IEnd=      529200.
 Iteration    1 A*A^-1 deviation from unit magnitude is 2.22D-15 for     97.
 Iteration    1 A*A^-1 deviation from orthogonality  is 1.55D-15 for    391    197.
 Iteration    1 A^-1*A deviation from unit magnitude is 2.44D-15 for      1.
 Iteration    1 A^-1*A deviation from orthogonality  is 9.99D-16 for    374    176.
 Error on total polarization charges =  0.02939
 SCF Done:  E(UM062X) =  -189.035056044     A.U. after   12 cycles
            NFock= 12  Conv=0.53D-08     -V/T= 2.0083
 <Sx>= 0.0000 <Sy>= 0.0000 <Sz>= 0.5000 <S**2>= 0.7540 S= 0.5020
 <L.S>=  0.00000000000    
 SMD-CDS (non-electrostatic) energy       (kcal/mol) =       5.45
 (included in total energy above)
 Annihilation of the first spin contaminant:
 S**2 before annihilation     0.7540,   after     0.7500
 D1PCM: PCM CHGder 1st derivatives, ID1Alg=3 FixD1E=F DoIter=F DoCFld=F I1PDM=0.
 Calling FoFJK, ICntrl=      2127 FMM=F ISym2X=0 I1Cent= 0 IOpClX= 1 NMat=1 NMatS=1 NMatT=0.
 ***** Axes restored to original set *****
 -------------------------------------------------------------------
 Center     Atomic                   Forces (Hartrees/Bohr)
 Number     Number              X              Y              Z
 -------------------------------------------------------------------
      1        1           0.000062129    0.000021728   -0.000000185
      2        6           0.001418081    0.001809672    0.000000949
      3        8          -0.000251273   -0.000505666    0.000000091
      4        8          -0.001228937   -0.001325734   -0.000000855
 -------------------------------------------------------------------
 Cartesian Forces:  Max     0.001809672 RMS     0.000860082

 GradGradGradGradGradGradGradGradGradGradGradGradGradGradGradGradGradGrad
 Berny optimization.
 Using GEDIIS/GDIIS optimizer.
 FormGI is forming the generalized inverse of G from B-inverse, IUseBI=4.
 Internal  Forces:  Max     0.001778510 RMS     0.000809736
 Search for a local minimum.
 Step number   4 out of a maximum of   20
 All quantities printed in internal units (Hartrees-Bohrs-Radians)
 Mixed Optimization -- En-DIIS/RFO-DIIS
 Update second derivatives using D2CorX and points    1    2    3    4
 DE= -3.59D-05 DEPred=-3.35D-05 R= 1.07D+00
 TightC=F SS=  1.41D+00  RLast= 1.44D-02 DXNew= 6.6498D-01 4.3164D-02
 Trust test= 1.07D+00 RLast= 1.44D-02 DXMaxT set to 3.95D-01
 The second derivative matrix:
                          R1        R2        R3        A1        A2
           R1           0.52138
           R2          -0.00189   0.38641
           R3           0.00535   0.11215   0.96683
           A1           0.00569   0.05828   0.02916   0.32366
           A2           0.00409   0.05813  -0.00233   0.03324   0.16927
           D1           0.00000  -0.00000   0.00002  -0.00003  -0.00001
                          D1
           D1           0.02138
 ITU=  1  1  1  0
 Use linear search instead of GDIIS.
     Eigenvalues ---    0.02138   0.15140   0.28703   0.41730   0.52154
     Eigenvalues ---    0.99028
 RFO step:  Lambda=-5.75431437D-06 EMin= 2.13793921D-02
 Quartic linear search produced a step of  0.07059.
 Iteration  1 RMS(Cart)=  0.00147680 RMS(Int)=  0.00000148
 Iteration  2 RMS(Cart)=  0.00000178 RMS(Int)=  0.00000000
 Iteration  3 RMS(Cart)=  0.00000000 RMS(Int)=  0.00000000
 Variable       Old X    -DE/DX   Delta X   Delta X   Delta X     New X
                                 (Linear)    (Quad)   (Total)
    R1        1.84054   0.00007   0.00000   0.00012   0.00012   1.84066
    R2        2.49310  -0.00039  -0.00027  -0.00106  -0.00134   2.49176
    R3        2.24771   0.00178   0.00037   0.00170   0.00207   2.24977
    A1        2.22074  -0.00078   0.00052  -0.00294  -0.00243   2.21832
    A2        1.92932  -0.00006   0.00074  -0.00014   0.00060   1.92993
    D1        3.14157   0.00000  -0.00001   0.00002   0.00002   3.14159
         Item               Value     Threshold  Converged?
 Maximum Force            0.001779     0.000450     NO 
 RMS     Force            0.000810     0.000300     NO 
 Maximum Displacement     0.002238     0.001800     NO 
 RMS     Displacement     0.001478     0.001200     NO 
 Predicted change in Energy=-3.033955D-06
 GradGradGradGradGradGradGradGradGradGradGradGradGradGradGradGradGradGrad

                          Input orientation:                          
 ---------------------------------------------------------------------
 Center     Atomic      Atomic             Coordinates (Angstroms)
 Number     Number       Type             X           Y           Z
 ---------------------------------------------------------------------
      1          1           0       -1.129745    1.747472   -0.000021
      2          6           0       -1.393417   -0.128874    0.000030
      3          8           0       -1.860989    1.104025   -0.000393
      4          8           0       -2.026603   -1.137058   -0.000239
 ---------------------------------------------------------------------
                    Distance matrix (angstroms):
                    1          2          3          4
     1  H    0.000000
     2  C    1.894781   0.000000
     3  O    0.974034   1.318584   0.000000
     4  O    3.020739   1.190529   2.247194   0.000000
 Stoichiometry    CHO2(2)
 Framework group  C1[X(CHO2)]
 Deg. of freedom     6
 Full point group                 C1      NOp   1
 Largest Abelian subgroup         C1      NOp   1
 Largest concise Abelian subgroup C1      NOp   1
                         Standard orientation:                         
 ---------------------------------------------------------------------
 Center     Atomic      Atomic             Coordinates (Angstroms)
 Number     Number       Type             X           Y           Z
 ---------------------------------------------------------------------
      1          1           0        1.775251    0.445578   -0.000002
      2          6           0       -0.118609    0.386515    0.000000
      3          8           0        1.056447   -0.211737    0.000000
      4          8           0       -1.189396   -0.133846   -0.000000
 ---------------------------------------------------------------------
 Rotational constants (GHZ):         169.7960510          11.5460069          10.8108753
 Standard basis: 6-31+G(d,p) (6D, 7F)
 There are    62 symmetry adapted cartesian basis functions of A   symmetry.
 There are    62 symmetry adapted basis functions of A   symmetry.
    62 basis functions,   103 primitive gaussians,    62 cartesian basis functions
    12 alpha electrons       11 beta electrons
       nuclear repulsion energy        63.0933116114 Hartrees.
 NAtoms=    4 NActive=    4 NUniq=    4 SFac= 1.00D+00 NAtFMM=   60 NAOKFM=F Big=F
 Integral buffers will be    131072 words long.
 Raffenetti 2 integral format.
 Two-electron integral symmetry is turned on.
 ------------------------------------------------------------------------------
 Polarizable Continuum Model (PCM)
 =================================
 Model                : PCM.
 Atomic radii         : SMD-Coulomb.
 Polarization charges : Total charges.
 Charge compensation  : None.
 Solution method      : On-the-fly selection.
 Cavity type          : VdW (van der Waals Surface) (Alpha=1.000).
 Cavity algorithm     : GePol (No added spheres)
                        Default sphere list used, NSphG=    4.
                        Lebedev-Laikov grids with approx.  5.0 points / Ang**2.
                        Smoothing algorithm: York/Karplus (Gamma=1.0000).
                        Polarization charges: spherical gaussians, with
                                              point-specific exponents (IZeta= 3).
                        Self-potential: point-specific (ISelfS= 7).
                        Self-field    : sphere-specific E.n sum rule (ISelfD= 2).
 1st derivatives      : Analytical E(r).r(x)/FMM algorithm (CHGder, D1EAlg=3).
                        Cavity 1st derivative terms included.
 Solvent              : Water, Eps=  78.355300 Eps(inf)=   1.777849
 ------------------------------------------------------------------------------
 Spheres list:
 ISph  on   Nord     Re0    Alpha      Xe            Ye            Ze
    1   H      1    1.2000  1.000      1.775251      0.445578     -0.000002
    2   C      2    1.8500  1.000     -0.118609      0.386515      0.000000
    3   O      3    1.5200  1.000      1.056447     -0.211737      0.000000
    4   O      4    1.5200  1.000     -1.189396     -0.133846     -0.000000
 ------------------------------------------------------------------------------
 ------------------------------------------------------------------------------
 Atomic radii for non-electrostatic terms: SMD-CDS.
 ------------------------------------------------------------------------------
 Nuclear repulsion after PCM non-electrostatic terms =       63.1019996526 Hartrees.
 One-electron integrals computed using PRISM.
 NBasis=    62 RedAO= T EigKep=  4.04D-03  NBF=    62
 NBsUse=    62 1.00D-06 EigRej= -1.00D+00 NBFU=    62
 Initial guess from the checkpoint file:  "/scratch/gongke2021/1-H-Tz-HCOO-/Gau-17747.chk"
 B after Tr=     0.000000    0.000000    0.000000
         Rot=    1.000000    0.000000    0.000000    0.000122 Ang=   0.01 deg.
 Initial guess <Sx>= 0.0000 <Sy>= 0.0000 <Sz>= 0.5000 <S**2>= 0.7540 S= 0.5020
 Keep R1 and R2 ints in memory in canonical form, NReq=21507342.
 Requested convergence on RMS density matrix=1.00D-08 within 128 cycles.
 Requested convergence on MAX density matrix=1.00D-06.
 Requested convergence on             energy=1.00D-06.
 No special actions if energy rises.
 Inv3:  Mode=1 IEnd=      529200.
 Iteration    1 A*A^-1 deviation from unit magnitude is 2.89D-15 for    205.
 Iteration    1 A*A^-1 deviation from orthogonality  is 2.11D-15 for    273    105.
 Iteration    1 A^-1*A deviation from unit magnitude is 2.44D-15 for    189.
 Iteration    1 A^-1*A deviation from orthogonality  is 1.01D-15 for    369    103.
 Error on total polarization charges =  0.02938
 SCF Done:  E(UM062X) =  -189.035059310     A.U. after   11 cycles
            NFock= 11  Conv=0.42D-08     -V/T= 2.0084
 <Sx>= 0.0000 <Sy>= 0.0000 <Sz>= 0.5000 <S**2>= 0.7540 S= 0.5020
 <L.S>=  0.00000000000    
 SMD-CDS (non-electrostatic) energy       (kcal/mol) =       5.45
 (included in total energy above)
 Annihilation of the first spin contaminant:
 S**2 before annihilation     0.7540,   after     0.7500
 D1PCM: PCM CHGder 1st derivatives, ID1Alg=3 FixD1E=F DoIter=F DoCFld=F I1PDM=0.
 Calling FoFJK, ICntrl=      2127 FMM=F ISym2X=0 I1Cent= 0 IOpClX= 1 NMat=1 NMatS=1 NMatT=0.
 ***** Axes restored to original set *****
 -------------------------------------------------------------------
 Center     Atomic                   Forces (Hartrees/Bohr)
 Number     Number              X              Y              Z
 -------------------------------------------------------------------
      1        1           0.000003868    0.000005994   -0.000000031
      2        6           0.000134716    0.000093293    0.000000118
      3        8          -0.000066775    0.000009693   -0.000000014
      4        8          -0.000071810   -0.000108980   -0.000000072
 -------------------------------------------------------------------
 Cartesian Forces:  Max     0.000134716 RMS     0.000063567

 GradGradGradGradGradGradGradGradGradGradGradGradGradGradGradGradGradGrad
 Berny optimization.
 Using GEDIIS/GDIIS optimizer.
 FormGI is forming the generalized inverse of G from B-inverse, IUseBI=4.
 Internal  Forces:  Max     0.000136220 RMS     0.000061280
 Search for a local minimum.
 Step number   5 out of a maximum of   20
 All quantities printed in internal units (Hartrees-Bohrs-Radians)
 Mixed Optimization -- En-DIIS/RFO-DIIS
 Swapping is turned off.
 Update second derivatives using D2CorX and points    1    2    3    4    5
 DE= -3.27D-06 DEPred=-3.03D-06 R= 1.08D+00
 TightC=F SS=  1.41D+00  RLast= 3.51D-03 DXNew= 6.6498D-01 1.0532D-02
 Trust test= 1.08D+00 RLast= 3.51D-03 DXMaxT set to 3.95D-01
 The second derivative matrix:
                          R1        R2        R3        A1        A2
           R1           0.52136
           R2          -0.00146   0.39226
           R3          -0.00017   0.10829   0.91809
           A1           0.00731   0.06188   0.04710   0.31533
           A2           0.00447   0.05606   0.00467   0.02944   0.16936
           D1           0.00000   0.00000  -0.00000  -0.00002  -0.00001
                          D1
           D1           0.02138
 ITU=  1  1  1  1  0
     Eigenvalues ---    0.02138   0.15388   0.28053   0.41489   0.52171
     Eigenvalues ---    0.94539
 En-DIIS/RFO-DIIS/Sim-DIIS IScMMF=       -3 using points:     5    4
 RFO step:  Lambda=-3.32769038D-08.
 DidBck=F Rises=F RFO-DIIS coefs:    1.04596   -0.04596
 Iteration  1 RMS(Cart)=  0.00008405 RMS(Int)=  0.00000001
 Iteration  2 RMS(Cart)=  0.00000001 RMS(Int)=  0.00000000
 Variable       Old X    -DE/DX   Delta X   Delta X   Delta X     New X
                                 (Linear)    (Quad)   (Total)
    R1        1.84066   0.00002   0.00001   0.00003   0.00003   1.84069
    R2        2.49176   0.00003  -0.00006   0.00013   0.00007   2.49184
    R3        2.24977   0.00014   0.00010   0.00005   0.00015   2.24992
    A1        2.21832  -0.00005  -0.00011  -0.00007  -0.00018   2.21814
    A2        1.92993  -0.00003   0.00003  -0.00017  -0.00015   1.92978
    D1        3.14159   0.00000   0.00000   0.00000   0.00000  -3.14159
         Item               Value     Threshold  Converged?
 Maximum Force            0.000136     0.000450     YES
 RMS     Force            0.000061     0.000300     YES
 Maximum Displacement     0.000162     0.001800     YES
 RMS     Displacement     0.000084     0.001200     YES
 Predicted change in Energy=-1.772337D-08
 Optimization completed.
    -- Stationary point found.
                           ----------------------------
                           !   Optimized Parameters   !
                           ! (Angstroms and Degrees)  !
 --------------------------                            --------------------------
 ! Name  Definition              Value          Derivative Info.                !
 --------------------------------------------------------------------------------
 ! R1    R(1,3)                  0.974          -DE/DX =    0.0                 !
 ! R2    R(2,3)                  1.3186         -DE/DX =    0.0                 !
 ! R3    R(2,4)                  1.1905         -DE/DX =    0.0001              !
 ! A1    A(3,2,4)              127.1002         -DE/DX =    0.0                 !
 ! A2    A(1,3,2)              110.5766         -DE/DX =    0.0                 !
 ! D1    D(4,2,3,1)           -180.0002         -DE/DX =    0.0                 !
 --------------------------------------------------------------------------------
 GradGradGradGradGradGradGradGradGradGradGradGradGradGradGradGradGradGrad

                          Input orientation:                          
 ---------------------------------------------------------------------
 Center     Atomic      Atomic             Coordinates (Angstroms)
 Number     Number       Type             X           Y           Z
 ---------------------------------------------------------------------
      1          1           0       -1.129745    1.747472   -0.000021
      2          6           0       -1.393417   -0.128874    0.000030
      3          8           0       -1.860989    1.104025   -0.000393
      4          8           0       -2.026603   -1.137058   -0.000239
 ---------------------------------------------------------------------
                    Distance matrix (angstroms):
                    1          2          3          4
     1  H    0.000000
     2  C    1.894781   0.000000
     3  O    0.974034   1.318584   0.000000
     4  O    3.020739   1.190529   2.247194   0.000000
 Stoichiometry    CHO2(2)
 Framework group  C1[X(CHO2)]
 Deg. of freedom     6
 Full point group                 C1      NOp   1
 Largest Abelian subgroup         C1      NOp   1
 Largest concise Abelian subgroup C1      NOp   1
                         Standard orientation:                         
 ---------------------------------------------------------------------
 Center     Atomic      Atomic             Coordinates (Angstroms)
 Number     Number       Type             X           Y           Z
 ---------------------------------------------------------------------
      1          1           0        1.775251    0.445578   -0.000002
      2          6           0       -0.118609    0.386515    0.000000
      3          8           0        1.056447   -0.211737    0.000000
      4          8           0       -1.189396   -0.133846   -0.000000
 ---------------------------------------------------------------------
 Rotational constants (GHZ):         169.7960510          11.5460069          10.8108753

 **********************************************************************

            Population analysis using the SCF density.

 **********************************************************************

 Orbital symmetries:
 Alpha Orbitals:
       Occupied  (A) (A) (A) (A) (A) (A) (A) (A) (A) (A) (A) (A)
       Virtual   (A) (A) (A) (A) (A) (A) (A) (A) (A) (A) (A) (A)
                 (A) (A) (A) (A) (A) (A) (A) (A) (A) (A) (A) (A)
                 (A) (A) (A) (A) (A) (A) (A) (A) (A) (A) (A) (A)
                 (A) (A) (A) (A) (A) (A) (A) (A) (A) (A) (A) (A)
                 (A) (A)
 Beta  Orbitals:
       Occupied  (A) (A) (A) (A) (A) (A) (A) (A) (A) (A) (A)
       Virtual   (A) (A) (A) (A) (A) (A) (A) (A) (A) (A) (A) (A)
                 (A) (A) (A) (A) (A) (A) (A) (A) (A) (A) (A) (A)
                 (A) (A) (A) (A) (A) (A) (A) (A) (A) (A) (A) (A)
                 (A) (A) (A) (A) (A) (A) (A) (A) (A) (A) (A) (A)
                 (A) (A) (A)
 The electronic state is 2-A.
 Alpha  occ. eigenvalues --  -19.72881 -19.69721 -10.70977  -1.27135  -1.19684
 Alpha  occ. eigenvalues --   -0.74021  -0.62091  -0.58622  -0.55980  -0.48826
 Alpha  occ. eigenvalues --   -0.43456  -0.30256
 Alpha virt. eigenvalues --    0.03398   0.03679   0.04977   0.07055   0.07485
 Alpha virt. eigenvalues --    0.17433   0.19131   0.21475   0.22723   0.25609
 Alpha virt. eigenvalues --    0.25935   0.27140   0.31198   0.33138   0.38045
 Alpha virt. eigenvalues --    0.48960   0.66573   0.68942   0.80537   1.00596
 Alpha virt. eigenvalues --    1.08358   1.16209   1.18781   1.23098   1.25554
 Alpha virt. eigenvalues --    1.26716   1.32261   1.40887   1.48936   1.53811
 Alpha virt. eigenvalues --    1.55209   1.59355   1.66771   1.81980   1.83551
 Alpha virt. eigenvalues --    1.87226   2.10288   2.33397   2.36675   2.44560
 Alpha virt. eigenvalues --    2.63275   2.64614   2.72621   2.92011   2.95292
 Alpha virt. eigenvalues --    3.20574   3.46414   4.10547   4.16205   4.33139
  Beta  occ. eigenvalues --  -19.72545 -19.69157 -10.70081  -1.25404  -1.17890
  Beta  occ. eigenvalues --   -0.72525  -0.58451  -0.55663  -0.54787  -0.44499
  Beta  occ. eigenvalues --   -0.43102
  Beta virt. eigenvalues --   -0.06400   0.04591   0.04610   0.05201   0.06686
  Beta virt. eigenvalues --    0.08283   0.17043   0.17956   0.20846   0.22609
  Beta virt. eigenvalues --    0.24768   0.25839   0.27159   0.31075   0.33498
  Beta virt. eigenvalues --    0.39288   0.50834   0.68489   0.69438   0.81334
  Beta virt. eigenvalues --    1.00806   1.08650   1.17437   1.18905   1.24205
  Beta virt. eigenvalues --    1.26635   1.26635   1.33193   1.42388   1.50450
  Beta virt. eigenvalues --    1.53776   1.55441   1.60496   1.67623   1.83569
  Beta virt. eigenvalues --    1.83942   1.88480   2.11974   2.34263   2.37744
  Beta virt. eigenvalues --    2.45308   2.63984   2.66307   2.74262   2.92624
  Beta virt. eigenvalues --    2.96579   3.21371   3.46768   4.10798   4.16347
  Beta virt. eigenvalues --    4.39801
          Condensed to atoms (all electrons):
               1          2          3          4
     1  H    0.279156  -0.013880   0.262479   0.006012
     2  C   -0.013880   4.995968   0.141945   0.445735
     3  O    0.262479   0.141945   8.152625  -0.092519
     4  O    0.006012   0.445735  -0.092519   8.072706
          Atomic-Atomic Spin Densities.
               1          2          3          4
     1  H   -0.002516  -0.013077   0.012582  -0.000868
     2  C   -0.013077   1.103045  -0.204551  -0.135959
     3  O    0.012582  -0.204551   0.233023   0.010516
     4  O   -0.000868  -0.135959   0.010516   0.329163
 Mulliken charges and spin densities:
               1          2
     1  H    0.466232  -0.003879
     2  C    0.430232   0.749458
     3  O   -0.464531   0.051569
     4  O   -0.431933   0.202851
 Sum of Mulliken charges =  -0.00000   1.00000
 Mulliken charges and spin densities with hydrogens summed into heavy atoms:
               1          2
     2  C    0.430232   0.749458
     3  O    0.001701   0.047691
     4  O   -0.431933   0.202851
 Electronic spatial extent (au):  <R**2>=            125.7128
 Charge=             -0.0000 electrons
 Dipole moment (field-independent basis, Debye):
    X=              4.0368    Y=              1.9328    Z=             -0.0000  Tot=              4.4757
 Quadrupole moment (field-independent basis, Debye-Ang):
   XX=            -14.9570   YY=            -17.1551   ZZ=            -16.5175
   XY=              2.3894   XZ=             -0.0000   YZ=             -0.0000
 Traceless Quadrupole moment (field-independent basis, Debye-Ang):
   XX=              1.2528   YY=             -0.9452   ZZ=             -0.3076
   XY=              2.3894   XZ=             -0.0000   YZ=             -0.0000
 Octapole moment (field-independent basis, Debye-Ang**2):
  XXX=             18.0909  YYY=             -1.6164  ZZZ=             -0.0000  XYY=              1.7318
  XXY=              4.3725  XXZ=             -0.0000  XZZ=              0.6065  YZZ=             -0.2115
  YYZ=             -0.0000  XYZ=             -0.0000
 Hexadecapole moment (field-independent basis, Debye-Ang**3):
 XXXX=            -89.0718 YYYY=            -26.0417 ZZZZ=            -14.8303 XXXY=              8.5476
 XXXZ=             -0.0000 YYYX=              1.9127 YYYZ=             -0.0000 ZZZX=             -0.0000
 ZZZY=             -0.0000 XXYY=            -20.7092 XXZZ=            -20.9133 YYZZ=             -6.6717
 XXYZ=             -0.0000 YYXZ=             -0.0000 ZZXY=              0.5369
 N-N= 6.310199965261D+01 E-N=-5.704080509650D+02  KE= 1.874678417147D+02
                          Isotropic Fermi Contact Couplings
        Atom                 a.u.       MegaHertz       Gauss      10(-4) cm-1
     1  H(1)               0.00039       1.72359       0.61502       0.57493
     2  C(13)              0.54350     610.99410     218.01789     203.80569
     3  O(17)              0.06229     -37.75950     -13.47353     -12.59521
     4  O(17)              0.10167     -61.63230     -21.99194     -20.55832
 --------------------------------------------------------
       Center         ----  Spin Dipole Couplings  ----
                      3XX-RR        3YY-RR        3ZZ-RR
 --------------------------------------------------------
     1   Atom        0.046613     -0.013568     -0.033046
     2   Atom       -0.319868      0.586040     -0.266172
     3   Atom       -0.000704      0.370559     -0.369855
     4   Atom       -0.489911      1.120758     -0.630848
 --------------------------------------------------------
                        XY            XZ            YZ
 --------------------------------------------------------
     1   Atom        0.015425     -0.000000     -0.000000
     2   Atom        0.134595      0.000000      0.000000
     3   Atom       -0.448584     -0.000001      0.000001
     4   Atom       -0.083006     -0.000000      0.000001
 --------------------------------------------------------


 ---------------------------------------------------------------------------------
              Anisotropic Spin Dipole Couplings in Principal Axis System
 ---------------------------------------------------------------------------------

       Atom             a.u.   MegaHertz   Gauss  10(-4) cm-1        Axes

              Baa    -0.0330   -17.632    -6.291    -5.881  0.0000  0.0000  1.0000
     1 H(1)   Bbb    -0.0173    -9.225    -3.292    -3.077 -0.2346  0.9721 -0.0000
              Bcc     0.0503    26.857     9.583     8.959  0.9721  0.2346 -0.0000
 
              Baa    -0.3394   -45.550   -16.253   -15.194  0.9896 -0.1439  0.0000
     2 C(13)  Bbb    -0.2662   -35.718   -12.745   -11.914 -0.0000 -0.0000  1.0000
              Bcc     0.6056    81.268    28.998    27.108  0.1439  0.9896  0.0000
 
              Baa    -0.3699    26.762     9.550     8.927  0.0000 -0.0000  1.0000
     3 O(17)  Bbb    -0.3005    21.747     7.760     7.254  0.8314  0.5557 -0.0000
              Bcc     0.6704   -48.510   -17.310   -16.181 -0.5557  0.8314  0.0000
 
              Baa    -0.6308    45.648    16.288    15.226 -0.0000 -0.0000  1.0000
     4 O(17)  Bbb    -0.4942    35.758    12.759    11.928  0.9987  0.0513  0.0000
              Bcc     1.1250   -81.406   -29.048   -27.154 -0.0513  0.9987  0.0000
 

 ---------------------------------------------------------------------------------

 1\1\GINC-NODE7\FOpt\UM062X\6-31+G(d,p)\C1H1O2(2)\GONGKE2021\05-Nov-202
 3\0\\# opt freq 6-31+g(d,p) m062x scrf=(SMD,solvent=water)\\"Sketch 2"
 \\0,2\H,-1.1297450134,1.7474716392,-0.0000207334\C,-1.3934166016,-0.12
 88738156,0.0000298715\O,-1.8609893604,1.1040248329,-0.0003929332\O,-2.
 0266030247,-1.1370576565,-0.0002392049\\Version=ES64L-G16RevA.03\State
 =2-A\HF=-189.0350593\S2=0.754001\S2-1=0.\S2A=0.750011\RMSD=4.201e-09\R
 MSF=6.357e-05\Dipole=0.9278378,1.4965838,0.0003943\Quadrupole=-0.30136
 ,0.5300678,-0.2287079,1.9106736,-0.0002574,0.0010785\PG=C01 [X(C1H1O2)
 ]\\@


 I do not feel obliged to believe that the same God who
 has endowed us with sense, reason, and intellect has
 intended us to forgo their use.
                   --Galileo Galilei
 Job cpu time:       0 days  0 hours  6 minutes 41.7 seconds.
 Elapsed time:       0 days  0 hours  0 minutes 22.0 seconds.
 File lengths (MBytes):  RWF=     10 Int=      0 D2E=      0 Chk=      2 Scr=      1
 Normal termination of Gaussian 16 at Sun Nov  5 19:36:43 2023.
 Link1:  Proceeding to internal job step number  2.
 ----------------------------------------------------------------------
 #N Geom=AllCheck Guess=TCheck SCRF=Check GenChk UM062X/6-31+G(d,p) Fre
 q
 ----------------------------------------------------------------------
 1/10=4,29=7,30=1,38=1,40=1/1,3;
 2/12=2,40=1/2;
 3/5=1,6=6,7=111,11=2,14=-4,25=1,30=1,70=2,71=2,74=-55,116=2,140=1/1,2,3;
 4/5=101/1;
 5/5=2,38=6,98=1/2;
 8/6=4,10=90,11=11/1;
 11/6=1,8=1,9=11,15=111,16=1/1,2,10;
 10/6=1/2;
 6/7=2,8=2,9=2,10=2,28=1/1;
 7/8=1,10=1,25=1/1,2,3,16;
 1/10=4,30=1/3;
 99//99;
 Structure from the checkpoint file:  "/scratch/gongke2021/1-H-Tz-HCOO-/Gau-17747.chk"
 ----------
 "Sketch 2"
 ----------
 Charge =  0 Multiplicity = 2
 Redundant internal coordinates found in file.  (old form).
 H,0,-1.1297450134,1.7474716392,-0.0000207334
 C,0,-1.3934166016,-0.1288738156,0.0000298715
 O,0,-1.8609893604,1.1040248329,-0.0003929332
 O,0,-2.0266030247,-1.1370576565,-0.0002392049
 Recover connectivity data from disk.

 GradGradGradGradGradGradGradGradGradGradGradGradGradGradGradGradGradGrad
 Berny optimization.
 Initialization pass.
                           ----------------------------
                           !    Initial Parameters    !
                           ! (Angstroms and Degrees)  !
 --------------------------                            --------------------------
 ! Name  Definition              Value          Derivative Info.                !
 --------------------------------------------------------------------------------
 ! R1    R(1,3)                  0.974          calculate D2E/DX2 analytically  !
 ! R2    R(2,3)                  1.3186         calculate D2E/DX2 analytically  !
 ! R3    R(2,4)                  1.1905         calculate D2E/DX2 analytically  !
 ! A1    A(3,2,4)              127.1002         calculate D2E/DX2 analytically  !
 ! A2    A(1,3,2)              110.5766         calculate D2E/DX2 analytically  !
 ! D1    D(4,2,3,1)            179.9998         calculate D2E/DX2 analytically  !
 --------------------------------------------------------------------------------
 Trust Radius=3.00D-01 FncErr=1.00D-07 GrdErr=1.00D-07 EigMax=2.50D+02 EigMin=1.00D-04
 Number of steps in this run=      2 maximum allowed number of steps=      2.
 GradGradGradGradGradGradGradGradGradGradGradGradGradGradGradGradGradGrad

                          Input orientation:                          
 ---------------------------------------------------------------------
 Center     Atomic      Atomic             Coordinates (Angstroms)
 Number     Number       Type             X           Y           Z
 ---------------------------------------------------------------------
      1          1           0       -1.129745    1.747472   -0.000021
      2          6           0       -1.393417   -0.128874    0.000030
      3          8           0       -1.860989    1.104025   -0.000393
      4          8           0       -2.026603   -1.137058   -0.000239
 ---------------------------------------------------------------------
                    Distance matrix (angstroms):
                    1          2          3          4
     1  H    0.000000
     2  C    1.894781   0.000000
     3  O    0.974034   1.318584   0.000000
     4  O    3.020739   1.190529   2.247194   0.000000
 Stoichiometry    CHO2(2)
 Framework group  C1[X(CHO2)]
 Deg. of freedom     6
 Full point group                 C1      NOp   1
 Largest Abelian subgroup         C1      NOp   1
 Largest concise Abelian subgroup C1      NOp   1
                         Standard orientation:                         
 ---------------------------------------------------------------------
 Center     Atomic      Atomic             Coordinates (Angstroms)
 Number     Number       Type             X           Y           Z
 ---------------------------------------------------------------------
      1          1           0        1.775251    0.445578   -0.000002
      2          6           0       -0.118609    0.386515    0.000000
[...]
     1  H   -0.002516  -0.013077   0.012582  -0.000868
     2  C   -0.013077   1.103045  -0.204551  -0.135959
     3  O    0.012582  -0.204551   0.233023   0.010516
     4  O   -0.000868  -0.135959   0.010516   0.329163
 Mulliken charges and spin densities:
               1          2
     1  H    0.466232  -0.003879
     2  C    0.430232   0.749458
     3  O   -0.464531   0.051569
     4  O   -0.431933   0.202851
 Sum of Mulliken charges =  -0.00000   1.00000
 Mulliken charges and spin densities with hydrogens summed into heavy atoms:
               1          2
     2  C    0.430232   0.749458
     3  O    0.001701   0.047691
     4  O   -0.431933   0.202851
 APT charges:
               1
     1  H    0.506148
     2  C    1.199661
     3  O   -0.867033
     4  O   -0.838777
 Sum of APT charges =  -0.00000
 APT charges with hydrogens summed into heavy atoms:
               1
     2  C    1.199661
     3  O   -0.360884
     4  O   -0.838777
 Electronic spatial extent (au):  <R**2>=            125.7128
 Charge=             -0.0000 electrons
 Dipole moment (field-independent basis, Debye):
    X=              4.0368    Y=              1.9328    Z=             -0.0000  Tot=              4.4757
 Quadrupole moment (field-independent basis, Debye-Ang):
   XX=            -14.9570   YY=            -17.1551   ZZ=            -16.5175
   XY=              2.3894   XZ=             -0.0000   YZ=             -0.0000
 Traceless Quadrupole moment (field-independent basis, Debye-Ang):
   XX=              1.2528   YY=             -0.9452   ZZ=             -0.3076
   XY=              2.3894   XZ=             -0.0000   YZ=             -0.0000
 Octapole moment (field-independent basis, Debye-Ang**2):
  XXX=             18.0909  YYY=             -1.6164  ZZZ=             -0.0000  XYY=              1.7318
  XXY=              4.3725  XXZ=             -0.0000  XZZ=              0.6065  YZZ=             -0.2115
  YYZ=             -0.0000  XYZ=             -0.0000
 Hexadecapole moment (field-independent basis, Debye-Ang**3):
 XXXX=            -89.0718 YYYY=            -26.0417 ZZZZ=            -14.8303 XXXY=              8.5476
 XXXZ=             -0.0000 YYYX=              1.9127 YYYZ=             -0.0000 ZZZX=             -0.0000
 ZZZY=             -0.0000 XXYY=            -20.7092 XXZZ=            -20.9133 YYZZ=             -6.6717
 XXYZ=             -0.0000 YYXZ=             -0.0000 ZZXY=              0.5369
 N-N= 6.310199965261D+01 E-N=-5.704080509205D+02  KE= 1.874678416865D+02
  Exact polarizability:  35.526   3.728  23.274   0.000   0.000  16.441
 Approx polarizability:  31.550   3.289  18.421   0.000   0.000  14.175
                          Isotropic Fermi Contact Couplings
        Atom                 a.u.       MegaHertz       Gauss      10(-4) cm-1
     1  H(1)               0.00039       1.72358       0.61502       0.57492
     2  C(13)              0.54350     610.99410     218.01789     203.80569
     3  O(17)              0.06229     -37.75951     -13.47353     -12.59522
     4  O(17)              0.10167     -61.63231     -21.99194     -20.55833
 --------------------------------------------------------
       Center         ----  Spin Dipole Couplings  ----
                      3XX-RR        3YY-RR        3ZZ-RR
 --------------------------------------------------------
     1   Atom        0.046613     -0.013568     -0.033046
     2   Atom       -0.319868      0.586040     -0.266172
     3   Atom       -0.000704      0.370559     -0.369855
     4   Atom       -0.489911      1.120758     -0.630847
 --------------------------------------------------------
                        XY            XZ            YZ
 --------------------------------------------------------
     1   Atom        0.015425     -0.000000     -0.000000
     2   Atom        0.134595      0.000000      0.000000
     3   Atom       -0.448584     -0.000001      0.000001
     4   Atom       -0.083006     -0.000000      0.000001
 --------------------------------------------------------


 ---------------------------------------------------------------------------------
              Anisotropic Spin Dipole Couplings in Principal Axis System
 ---------------------------------------------------------------------------------

       Atom             a.u.   MegaHertz   Gauss  10(-4) cm-1        Axes

              Baa    -0.0330   -17.632    -6.291    -5.881  0.0000  0.0000  1.0000
     1 H(1)   Bbb    -0.0173    -9.225    -3.292    -3.077 -0.2346  0.9721 -0.0000
              Bcc     0.0503    26.857     9.583     8.959  0.9721  0.2346 -0.0000
 
              Baa    -0.3394   -45.550   -16.253   -15.194  0.9896 -0.1439  0.0000
     2 C(13)  Bbb    -0.2662   -35.718   -12.745   -11.914 -0.0000 -0.0000  1.0000
              Bcc     0.6056    81.268    28.998    27.108  0.1439  0.9896  0.0000
 
              Baa    -0.3699    26.762     9.550     8.927  0.0000 -0.0000  1.0000
     3 O(17)  Bbb    -0.3005    21.747     7.760     7.254  0.8314  0.5557 -0.0000
              Bcc     0.6704   -48.510   -17.310   -16.181 -0.5557  0.8314  0.0000
 
              Baa    -0.6308    45.648    16.288    15.226 -0.0000 -0.0000  1.0000
     4 O(17)  Bbb    -0.4942    35.758    12.759    11.928  0.9987  0.0513  0.0000
              Bcc     1.1250   -81.406   -29.048   -27.154 -0.0513  0.9987  0.0000
 

 ---------------------------------------------------------------------------------

 D2PCM: PCM CHGder 2nd derivatives, FixD1E=F FixD2E=F DoIter=F DoCFld=F I1PDM=0
 Calling FoFJK, ICntrl=    100127 FMM=F ISym2X=0 I1Cent= 0 IOpClX= 1 NMat=1 NMatS=1 NMatT=0.
 Full mass-weighted force constant matrix:
 Low frequencies ---  -87.3352  -85.4087  -46.3449   -0.0008    0.0013    0.0016
 Low frequencies ---  483.1276  626.8665 1149.9806
 Diagonal vibrational polarizability:
       16.2105350       1.7607240      19.0249803
 Harmonic frequencies (cm**-1), IR intensities (KM/Mole), Raman scattering
 activities (A**4/AMU), depolarization ratios for plane and unpolarized
 incident light, reduced masses (AMU), force constants (mDyne/A),
 and normal coordinates:
                      1                      2                      3
                      A                      A                      A
 Frequencies --    481.4951               626.6285              1149.9718
 Red. masses --      1.2078                 6.5061                 4.5026
 Frc consts  --      0.1650                 1.5052                 3.5082
 IR Inten    --    163.8984                 6.3511               109.5039
  Atom  AN      X      Y      Z        X      Y      Z        X      Y      Z
     1   1     0.00   0.00   0.99     0.24  -0.73  -0.00     0.68  -0.52   0.00
     2   6     0.00   0.00  -0.10     0.00   0.41   0.00    -0.25   0.28   0.00
     3   8    -0.00  -0.00  -0.05    -0.33  -0.07  -0.00     0.30  -0.10  -0.00
     4   8     0.00  -0.00   0.06     0.31  -0.19  -0.00    -0.15  -0.08  -0.00
                      4                      5                      6
                      A                      A                      A
 Frequencies --   1219.2380              1882.8280              3754.8338
 Red. masses --      1.4655                10.5413                 1.0674
 Frc consts  --      1.2835                22.0173                 8.8666
 IR Inten    --    548.0370               602.1920               426.9753
  Atom  AN      X      Y      Z        X      Y      Z        X      Y      Z
     1   1    -0.69   0.70   0.00    -0.31   0.35  -0.00     0.75   0.66  -0.00
     2   6    -0.07   0.10  -0.00     0.65   0.32   0.00    -0.00  -0.00   0.00
     3   8     0.04  -0.12   0.00    -0.03  -0.04   0.00    -0.05  -0.04   0.00
     4   8     0.05  -0.00   0.00    -0.44  -0.23  -0.00     0.00   0.00  -0.00

 -------------------
 - Thermochemistry -
 -------------------
 Temperature   298.150 Kelvin.  Pressure   1.00000 Atm.
 Atom     1 has atomic number  1 and mass   1.00783
 Atom     2 has atomic number  6 and mass  12.00000
 Atom     3 has atomic number  8 and mass  15.99491
 Atom     4 has atomic number  8 and mass  15.99491
 Molecular mass:    44.99765 amu.
 Principal axes and moments of inertia in atomic units:
                           1         2         3
     Eigenvalues --    10.62888 156.30869 166.93756
           X            0.99981   0.01966  -0.00000
           Y           -0.01966   0.99981  -0.00000
           Z            0.00000   0.00000   1.00000
 This molecule is an asymmetric top.
 Rotational symmetry number  1.
 Rotational temperatures (Kelvin)      8.14893     0.55412     0.51884
 Rotational constants (GHZ):         169.79605    11.54601    10.81088
 Zero-point vibrational energy      54519.8 (Joules/Mol)
                                   13.03054 (Kcal/Mol)
 Warning -- explicit consideration of   1 degrees of freedom as
           vibrations may cause significant error
 Vibrational temperatures:    692.76   901.58  1654.55  1754.21  2708.97
          (Kelvin)           5402.37
 
 Zero-point correction=                           0.020765 (Hartree/Particle)
 Thermal correction to Energy=                    0.024019
 Thermal correction to Enthalpy=                  0.024963
 Thermal correction to Gibbs Free Energy=        -0.003627
 Sum of electronic and zero-point Energies=           -189.014294
 Sum of electronic and thermal Energies=              -189.011040
 Sum of electronic and thermal Enthalpies=            -189.010096
 Sum of electronic and thermal Free Energies=         -189.038687
 
                     E (Thermal)             CV                S
                      KCal/Mol        Cal/Mol-Kelvin    Cal/Mol-Kelvin
 Total                   15.072              8.680             60.174
 Electronic               0.000              0.000              1.377
 Translational            0.889              2.981             37.338
 Rotational               0.889              2.981             20.256
 Vibrational             13.295              2.718              1.203
 Vibration     1          0.838              1.291              0.706
                       Q            Log10(Q)             Ln(Q)
 Total Bot       0.466151D+02          1.668527          3.841924
 Total V=0       0.165951D+12         11.219979         25.834957
 Vib (Bot)       0.329534D-09         -9.482100        -21.833342
 Vib (Bot)    1  0.346902D+00         -0.459793         -1.058712
 Vib (V=0)       0.117315D+01          0.069353          0.159690
 Vib (V=0)    1  0.110856D+01          0.044758          0.103059
 Electronic      0.200000D+01          0.301030          0.693147
 Translational   0.118642D+08          7.074239         16.289037
 Rotational      0.596153D+04          3.775358          8.693083
 ***** Axes restored to original set *****
 -------------------------------------------------------------------
 Center     Atomic                   Forces (Hartrees/Bohr)
 Number     Number              X              Y              Z
 -------------------------------------------------------------------
      1        1           0.000003869    0.000005994   -0.000000031
      2        6           0.000134716    0.000093295    0.000000118
      3        8          -0.000066775    0.000009693   -0.000000014
      4        8          -0.000071810   -0.000108982   -0.000000072
 -------------------------------------------------------------------
 Cartesian Forces:  Max     0.000134716 RMS     0.000063567
 FormGI is forming the generalized inverse of G from B-inverse, IUseBI=4.

 GradGradGradGradGradGradGradGradGradGradGradGradGradGradGradGradGradGrad
 Berny optimization.
 Internal  Forces:  Max     0.000136221 RMS     0.000061280
 Search for a local minimum.
 Step number   1 out of a maximum of    2
 All quantities printed in internal units (Hartrees-Bohrs-Radians)
 Second derivative matrix not updated -- analytic derivatives used.
 The second derivative matrix:
                          R1        R2        R3        A1        A2
           R1           0.50739
           R2           0.00523   0.42051
           R3          -0.01141   0.12497   0.92633
           A1          -0.00086   0.06302   0.04688   0.31752
           A2           0.01794   0.05824   0.00206   0.02687   0.17019
           D1          -0.00000   0.00000  -0.00000   0.00000  -0.00000
                          D1
           D1           0.02569
 ITU=  0
     Eigenvalues ---    0.02569   0.15451   0.28736   0.42880   0.50951
     Eigenvalues ---    0.96177
 Angle between quadratic step and forces=  35.06 degrees.
 Linear search not attempted -- first point.
 Iteration  1 RMS(Cart)=  0.00008291 RMS(Int)=  0.00000001
 Iteration  2 RMS(Cart)=  0.00000001 RMS(Int)=  0.00000000
 Variable       Old X    -DE/DX   Delta X   Delta X   Delta X     New X
                                 (Linear)    (Quad)   (Total)
    R1        1.84066   0.00002   0.00000   0.00004   0.00004   1.84070
    R2        2.49176   0.00003   0.00000   0.00006   0.00006   2.49183
    R3        2.24977   0.00014   0.00000   0.00015   0.00015   2.24992
    A1        2.21832  -0.00005   0.00000  -0.00018  -0.00018   2.21814
    A2        1.92993  -0.00003   0.00000  -0.00015  -0.00015   1.92978
    D1        3.14159   0.00000   0.00000   0.00000   0.00000   3.14159
         Item               Value     Threshold  Converged?
 Maximum Force            0.000136     0.000450     YES
 RMS     Force            0.000061     0.000300     YES
 Maximum Displacement     0.000158     0.001800     YES
 RMS     Displacement     0.000083     0.001200     YES
 Predicted change in Energy=-1.746724D-08
 Optimization completed.
    -- Stationary point found.
                           ----------------------------
                           !   Optimized Parameters   !
                           ! (Angstroms and Degrees)  !
 --------------------------                            --------------------------
 ! Name  Definition              Value          Derivative Info.                !
 --------------------------------------------------------------------------------
 ! R1    R(1,3)                  0.974          -DE/DX =    0.0                 !
 ! R2    R(2,3)                  1.3186         -DE/DX =    0.0                 !
 ! R3    R(2,4)                  1.1905         -DE/DX =    0.0001              !
 ! A1    A(3,2,4)              127.1002         -DE/DX =    0.0                 !
 ! A2    A(1,3,2)              110.5766         -DE/DX =    0.0                 !
 ! D1    D(4,2,3,1)            179.9998         -DE/DX =    0.0                 !
 --------------------------------------------------------------------------------
 GradGradGradGradGradGradGradGradGradGradGradGradGradGradGradGradGradGrad


 ----------------------------------------------------------------------

 Electric dipole moment (input orientation):
 (Debye = 10**-18 statcoulomb cm , SI units = C m)
                  (au)            (Debye)         (10**-30 SI)
   Tot        0.176087D+01      0.447567D+01      0.149292D+02
   x          0.927838D+00      0.235833D+01      0.786654D+01
   y          0.149658D+01      0.380394D+01      0.126886D+02
   z          0.394292D-03      0.100219D-02      0.334295D-02

 Dipole polarizability, Alpha (input orientation).
 (esu units = cm**3 , SI units = C**2 m**2 J**-1)
 Alpha(0;0):
               (au)            (10**-24 esu)      (10**-40 SI)
   iso        0.250803D+02      0.371651D+01      0.413518D+01
   aniso      0.179503D+02      0.265995D+01      0.295960D+01
   xx         0.242196D+02      0.358898D+01      0.399328D+01
   yx         0.495920D+01      0.734877D+00      0.817661D+00
   yy         0.345800D+02      0.512423D+01      0.570147D+01
   zx         0.414989D-02      0.614951D-03      0.684225D-03
   zy         0.951023D-03      0.140927D-03      0.156802D-03
   zz         0.164411D+02      0.243633D+01      0.271078D+01

 ----------------------------------------------------------------------

 Dipole orientation:
     1         -3.02080977          1.87330199          1.68169278
     6         -1.79323735          1.11126769         -1.59446178
     8         -3.47428928          2.15480934         -0.07987753
     8         -1.80434941          1.11816239         -3.84419790

 Electric dipole moment (dipole orientation):
 (Debye = 10**-18 statcoulomb cm , SI units = C m)
                  (au)            (Debye)         (10**-30 SI)
   Tot        0.176087D+01      0.447567D+01      0.149292D+02
   x          0.000000D+00      0.000000D+00      0.000000D+00
   y          0.000000D+00      0.000000D+00      0.000000D+00
   z          0.176087D+01      0.447567D+01      0.149292D+02

 Dipole polarizability, Alpha (dipole orientation).
 (esu units = cm**3 , SI units = C**2 m**2 J**-1)
 Alpha(0;0):
               (au)            (10**-24 esu)      (10**-40 SI)
   iso        0.250803D+02      0.371651D+01      0.413518D+01
   aniso      0.179503D+02      0.265995D+01      0.295960D+01
   xx         0.209261D+02      0.310092D+01      0.345024D+01
   yx        -0.278408D+01     -0.412559D+00     -0.459034D+00
   yy         0.181694D+02      0.269243D+01      0.299573D+01
   zx        -0.206826D+01     -0.306485D+00     -0.341011D+00
   zy         0.128393D+01      0.190259D+00      0.211692D+00
   zz         0.361453D+02      0.535618D+01      0.595956D+01

 ----------------------------------------------------------------------
 1\1\GINC-NODE7\Freq\UM062X\6-31+G(d,p)\C1H1O2(2)\GONGKE2021\05-Nov-202
 3\0\\#N Geom=AllCheck Guess=TCheck SCRF=Check GenChk UM062X/6-31+G(d,p
 ) Freq\\"Sketch 2"\\0,2\H,-1.1297450134,1.7474716392,-0.0000207334\C,-
 1.3934166016,-0.1288738156,0.0000298715\O,-1.8609893604,1.1040248329,-
 0.0003929332\O,-2.0266030247,-1.1370576565,-0.0002392049\\Version=ES64
 L-G16RevA.03\State=2-A\HF=-189.0350593\S2=0.754001\S2-1=0.\S2A=0.75001
 1\RMSD=3.712e-10\RMSF=6.357e-05\ZeroPoint=0.0207655\Thermal=0.024019\D
 ipole=0.9278378,1.4965838,0.0003943\DipoleDeriv=0.4098829,0.1209769,-0
 .0000545,0.1023086,0.6312446,0.0000449,-0.0000524,0.0000561,0.4773173,
 0.5611284,0.0823078,0.0002148,0.1740571,2.8472429,-0.0001959,0.0002043
 ,-0.0002511,0.1906114,-0.3429647,0.5036344,-0.0000551,-0.1152109,-1.91
 21954,0.0001075,0.0000151,0.0004822,-0.3459375,-0.6280466,-0.7069191,-
 0.0001052,-0.1611548,-1.5662921,0.0000434,-0.000167,-0.0002872,-0.3219
 912\Polar=24.2196313,4.9591991,34.5800094,0.0041499,0.000951,16.44114\
 Quadrupole=-0.30136,0.5300678,-0.2287078,1.9106735,-0.0002574,0.001078
 5\PG=C01 [X(C1H1O2)]\NImag=0\\0.29543054,0.22769090,0.25991893,0.00014
 991,0.00010999,0.00669399,0.01687895,-0.03251425,0.00001987,0.49181159
 ,0.01431837,-0.04168391,0.00001230,0.27695301,0.85082295,0.00001463,-0
 .00001614,-0.00986590,0.00025897,0.00007268,0.01242652,-0.31450794,-0.
 20367454,-0.00016472,-0.16469642,0.06371569,-0.00011217,0.42666850,-0.
 25215944,-0.22111125,-0.00012917,0.13178783,-0.23876680,0.00010783,0.1
 5336193,0.59334989,-0.00015926,-0.00009966,-0.00580006,-0.00011982,0.0
 0006649,0.00838371,0.00023952,0.00002696,0.00400604,0.00219845,0.00849
 788,-0.00000506,-0.34399412,-0.35498706,-0.00016143,0.05253585,-0.0329
 9033,0.00003956,0.28925982,0.01015016,0.00287623,0.00000687,-0.3762265
 9,-0.57037224,-0.00016437,-0.01340308,-0.13347185,0.00000622,0.3794795
 1,0.70096785,-0.00000528,0.00000582,0.00897197,-0.00015902,-0.00015147
 ,-0.01094434,0.00003736,-0.00000562,-0.00658969,0.00012693,0.00015128,
 0.00856205\\-0.00000387,-0.00000599,0.00000003,-0.00013472,-0.00009330
 ,-0.00000012,0.00006677,-0.00000969,0.00000001,0.00007181,0.00010898,0
 .00000007\\\@


 THE FIRST MORNING OF CREATION WROTE WHAT THE LAST DAWN OF
 RECKONING SHALL READ. -- OMAR KHAYYAM
 Job cpu time:       0 days  0 hours  3 minutes 45.5 seconds.
 Elapsed time:       0 days  0 hours  0 minutes 12.5 seconds.
 File lengths (MBytes):  RWF=     11 Int=      0 D2E=      0 Chk=      3 Scr=      1
 Normal termination of Gaussian 16 at Sun Nov  5 19:37:15 2023.
