 Entering Gaussian System, Link 0=/opt/soft/g16b/g16/g16
 Initial command:
 /opt/soft/g16b/g16/l1.exe "/scratch/gongke2021/1-H-Tz-HCOO-/Gau-32668.inp" -scrdir="/scratch/gongke2021/1-H-Tz-HCOO-/"
 Entering Link 1 = /opt/soft/g16b/g16/l1.exe PID=     32669.
  
 Copyright (c) 1988,1990,1992,1993,1995,1998,2003,2009,2016,
            Gaussian, Inc.  All Rights Reserved.
  
 This is part of the Gaussian(R) 16 program.  It is based on
 the Gaussian(R) 09 system (copyright 2009, Gaussian, Inc.),
 the Gaussian(R) 03 system (copyright 2003, Gaussian, Inc.),
 the Gaussian(R) 98 system (copyright 1998, Gaussian, Inc.),
 the Gaussian(R) 94 system (copyright 1995, Gaussian, Inc.),
 the Gaussian 92(TM) system (copyright 1992, Gaussian, Inc.),
 the Gaussian 90(TM) system (copyright 1990, Gaussian, Inc.),
 the Gaussian 88(TM) system (copyright 1988, Gaussian, Inc.),
 the Gaussian 86(TM) system (copyright 1986, Carnegie Mellon
 University), and the Gaussian 82(TM) system (copyright 1983,
 Carnegie Mellon University). Gaussian is a federally registered
 trademark of Gaussian, Inc.
  
 This software contains proprietary and confidential information,
 including trade secrets, belonging to Gaussian, Inc.
  
 This software is provided under written license and may be
 used, copied, transmitted, or stored only in accord with that
 written license.
  
 The following legend is applicable only to US Government
 contracts under FAR:
  
                    RESTRICTED RIGHTS LEGEND
  
 Use, reproduction and disclosure by the US Government is
 subject to restrictions as set forth in subparagraphs (a)
 and (c) of the Commercial Computer Software - Restricted
 Rights clause in FAR 52.227-19.
  
 Gaussian, Inc.
 340 Quinnipiac St., Bldg. 40, Wallingford CT 06492
  
  
 ---------------------------------------------------------------
 Warning -- This program may not be used in any manner that
 competes with the business of Gaussian, Inc. or will provide
 assistance to any competitor of Gaussian, Inc.  The licensee
 of this program is prohibited from giving any competitor of
 Gaussian, Inc. access to this program.  By using this program,
 the user acknowledges that Gaussian, Inc. is engaged in the
 business of creating and licensing software in the field of
 computational chemistry and represents and warrants to the
 licensee that it is not a competitor of Gaussian, Inc. and that
 it will not use this program in any manner prohibited above.
 ---------------------------------------------------------------
  

 Cite this work as:
 Gaussian 16, Revision A.03,
 M. J. Frisch, G. W. Trucks, H. B. Schlegel, G. E. Scuseria, 
 M. A. Robb, J. R. Cheeseman, G. Scalmani, V. Barone, 
 G. A. Petersson, H. Nakatsuji, X. Li, M. Caricato, A. V. Marenich, 
 J. Bloino, B. G. Janesko, R. Gomperts, B. Mennucci, H. P. Hratchian, 
 J. V. Ortiz, A. F. Izmaylov, J. L. Sonnenberg, D. Williams-Young, 
 F. Ding, F. Lipparini, F. Egidi, J. Goings, B. Peng, A. Petrone, 
 T. Henderson, D. Ranasinghe, V. G. Zakrzewski, J. Gao, N. Rega, 
 G. Zheng, W. Liang, M. Hada, M. Ehara, K. Toyota, R. Fukuda, 
 J. Hasegawa, M. Ishida, T. Nakajima, Y. Honda, O. Kitao, H. Nakai, 
 T. Vreven, K. Throssell, J. A. Montgomery, Jr., J. E. Peralta, 
 F. Ogliaro, M. J. Bearpark, J. J. Heyd, E. N. Brothers, K. N. Kudin, 
 V. N. Staroverov, T. A. Keith, R. Kobayashi, J. Normand, 
 K. Raghavachari, A. P. Rendell, J. C. Burant, S. S. Iyengar, 
 J. Tomasi, M. Cossi, J. M. Millam, M. Klene, C. Adamo, R. Cammi, 
 J. W. Ochterski, R. L. Martin, K. Morokuma, O. Farkas, 
 J. B. Foresman, and D. J. Fox, Gaussian, Inc., Wallingford CT, 2016.
 
 ******************************************
 Gaussian 16:  ES64L-G16RevA.03 25-Dec-2016
                23-Jul-2023 
 ******************************************
 %mem=10GB
 %nprocshared=20
 Will use up to   20 processors via shared memory.
 -----------------------------------------------------
 # opt freq 6-31+g(d,p) m062x scrf=(SMD,solvent=water)
 -----------------------------------------------------
 1/18=20,19=15,26=3,38=1/1,3;
 2/9=110,12=2,17=6,18=5,40=1/2;
 3/5=1,6=6,7=111,11=2,25=1,30=1,70=32201,71=1,72=1,74=-55/1,2,3;
 4//1;
 5/5=2,38=5,53=1/2;
 6/7=2,8=2,9=2,10=2,28=1/1;
 7//1,2,3,16;
 1/18=20,19=15,26=3/3(2);
 2/9=110/2;
 99//99;
 2/9=110/2;
 3/5=1,6=6,7=111,11=2,25=1,30=1,70=32205,71=1,72=1,74=-55/1,2,3;
 4/5=5,16=3,69=1/1;
 5/5=2,38=5,53=1/2;
 7//1,2,3,16;
 1/18=20,19=15,26=3/3(-5);
 2/9=110/2;
 6/7=2,8=2,9=2,10=2,19=2,28=1/1;
 99/9=1/99;
 ----------
 "Sketch 2"
 ----------
 Symbolic Z-matrix:
 Charge = -1 Multiplicity = 1
 H                    -1.1293    1.73848  -0.00013 
 C                    -1.34882  -0.13544   0.00019 
 O                    -1.8857    1.12093  -0.00033 
 O                    -2.04693  -1.13841  -0.00036 
 

 GradGradGradGradGradGradGradGradGradGradGradGradGradGradGradGradGradGrad
 Berny optimization.
 Initialization pass.
                           ----------------------------
                           !    Initial Parameters    !
                           ! (Angstroms and Degrees)  !
 --------------------------                            --------------------------
 ! Name  Definition              Value          Derivative Info.                !
 --------------------------------------------------------------------------------
 ! R1    R(1,3)                  0.9765         estimate D2E/DX2                !
 ! R2    R(2,3)                  1.3663         estimate D2E/DX2                !
 ! R3    R(2,4)                  1.222          estimate D2E/DX2                !
 ! A1    A(3,2,4)              122.022          estimate D2E/DX2                !
 ! A2    A(1,3,2)              106.0909         estimate D2E/DX2                !
 ! D1    D(4,2,3,1)           -179.9746         estimate D2E/DX2                !
 --------------------------------------------------------------------------------
 Trust Radius=3.00D-01 FncErr=1.00D-07 GrdErr=1.00D-06 EigMax=2.50D+02 EigMin=1.00D-04
 Number of steps in this run=     20 maximum allowed number of steps=    100.
 GradGradGradGradGradGradGradGradGradGradGradGradGradGradGradGradGradGrad

                          Input orientation:                          
 ---------------------------------------------------------------------
 Center     Atomic      Atomic             Coordinates (Angstroms)
 Number     Number       Type             X           Y           Z
 ---------------------------------------------------------------------
      1          1           0       -1.129302    1.738481   -0.000128
      2          6           0       -1.348819   -0.135436    0.000193
      3          8           0       -1.885702    1.120930   -0.000331
      4          8           0       -2.046931   -1.138410   -0.000357
 ---------------------------------------------------------------------
                    Distance matrix (angstroms):
                    1          2          3          4
     1  H    0.000000
     2  C    1.886731   0.000000
     3  O    0.976478   1.366272   0.000000
     4  O    3.019693   1.222014   2.265085   0.000000
 Stoichiometry    CHO2(1-)
 Framework group  C1[X(CHO2)]
 Deg. of freedom     6
 Full point group                 C1      NOp   1
 Largest Abelian subgroup         C1      NOp   1
 Largest concise Abelian subgroup C1      NOp   1
                         Standard orientation:                         
 ---------------------------------------------------------------------
 Center     Atomic      Atomic             Coordinates (Angstroms)
 Number     Number       Type             X           Y           Z
 ---------------------------------------------------------------------
      1          1           0        1.761579    0.458808    0.000299
      2          6           0       -0.125006    0.435382   -0.000057
      3          8           0        1.068706   -0.229260   -0.000029
      4          8           0       -1.195149   -0.154627    0.000034
 ---------------------------------------------------------------------
 Rotational constants (GHZ):         136.9996053          11.3878503          10.5139009
 Standard basis: 6-31+G(d,p) (6D, 7F)
 There are    62 symmetry adapted cartesian basis functions of A   symmetry.
 There are    62 symmetry adapted basis functions of A   symmetry.
    62 basis functions,   103 primitive gaussians,    62 cartesian basis functions
    12 alpha electrons       12 beta electrons
       nuclear repulsion energy        61.7489558522 Hartrees.
 NAtoms=    4 NActive=    4 NUniq=    4 SFac= 1.00D+00 NAtFMM=   60 NAOKFM=F Big=F
 Integral buffers will be    131072 words long.
 Raffenetti 2 integral format.
 Two-electron integral symmetry is turned on.
 ------------------------------------------------------------------------------
 Polarizable Continuum Model (PCM)
 =================================
 Model                : PCM.
 Atomic radii         : SMD-Coulomb.
 Polarization charges : Total charges.
 Charge compensation  : None.
 Solution method      : On-the-fly selection.
 Cavity type          : VdW (van der Waals Surface) (Alpha=1.000).
 Cavity algorithm     : GePol (No added spheres)
                        Default sphere list used, NSphG=    4.
                        Lebedev-Laikov grids with approx.  5.0 points / Ang**2.
                        Smoothing algorithm: York/Karplus (Gamma=1.0000).
                        Polarization charges: spherical gaussians, with
                                              point-specific exponents (IZeta= 3).
                        Self-potential: point-specific (ISelfS= 7).
                        Self-field    : sphere-specific E.n sum rule (ISelfD= 2).
 1st derivatives      : Analytical E(r).r(x)/FMM algorithm (CHGder, D1EAlg=3).
                        Cavity 1st derivative terms included.
 Solvent              : Water, Eps=  78.355300 Eps(inf)=   1.777849
 ------------------------------------------------------------------------------
 Spheres list:
 ISph  on   Nord     Re0    Alpha      Xe            Ye            Ze
    1   H      1    1.2000  1.000      1.761579      0.458808      0.000299
    2   C      2    1.8500  1.000     -0.125006      0.435382     -0.000057
    3   O      3    1.5200  1.000      1.068706     -0.229260     -0.000029
    4   O      4    1.5200  1.000     -1.195149     -0.154627      0.000034
 ------------------------------------------------------------------------------
 ------------------------------------------------------------------------------
 Atomic radii for non-electrostatic terms: SMD-CDS.
 ------------------------------------------------------------------------------
 Nuclear repulsion after PCM non-electrostatic terms =       61.7571811560 Hartrees.
 One-electron integrals computed using PRISM.
 NBasis=    62 RedAO= T EigKep=  4.32D-03  NBF=    62
 NBsUse=    62 1.00D-06 EigRej= -1.00D+00 NBFU=    62
 ExpMin= 4.38D-02 ExpMax= 5.48D+03 ExpMxC= 8.25D+02 IAcc=3 IRadAn=         5 AccDes= 0.00D+00
 Harris functional with IExCor= 1009 and IRadAn=       5 diagonalized for initial guess.
 HarFok:  IExCor= 1009 AccDes= 0.00D+00 IRadAn=         5 IDoV= 1 UseB2=F ITyADJ=14
 ICtDFT=  3500011 ScaDFX=  1.000000  1.000000  1.000000  1.000000
 FoFCou: FMM=F IPFlag=           0 FMFlag=      100000 FMFlg1=           0
         NFxFlg=           0 DoJE=T BraDBF=F KetDBF=T FulRan=T
         wScrn=  0.000000 ICntrl=       500 IOpCl=  0 I1Cent=   200000004 NGrid=           0
         NMat0=    1 NMatS0=      1 NMatT0=    0 NMatD0=    1 NMtDS0=    0 NMtDT0=    0
 Petite list used in FoFCou.
 Keep R1 ints in memory in canonical form, NReq=19599261.
 Requested convergence on RMS density matrix=1.00D-08 within 128 cycles.
 Requested convergence on MAX density matrix=1.00D-06.
 Requested convergence on             energy=1.00D-06.
 No special actions if energy rises.
 Inv3:  Mode=1 IEnd=      541875.
 Iteration    1 A*A^-1 deviation from unit magnitude is 2.00D-15 for      7.
 Iteration    1 A*A^-1 deviation from orthogonality  is 1.45D-15 for    279    109.
 Iteration    1 A^-1*A deviation from unit magnitude is 2.00D-15 for      7.
 Iteration    1 A^-1*A deviation from orthogonality  is 1.09D-15 for    415    373.
 Error on total polarization charges =  0.07362
 SCF Done:  E(RM062X) =  -189.177058104     A.U. after   12 cycles
            NFock= 12  Conv=0.84D-08     -V/T= 2.0080
 SMD-CDS (non-electrostatic) energy       (kcal/mol) =       5.16
 (included in total energy above)

 **********************************************************************

            Population analysis using the SCF density.

 **********************************************************************

 Orbital symmetries:
       Occupied  (A) (A) (A) (A) (A) (A) (A) (A) (A) (A) (A) (A)
       Virtual   (A) (A) (A) (A) (A) (A) (A) (A) (A) (A) (A) (A)
                 (A) (A) (A) (A) (A) (A) (A) (A) (A) (A) (A) (A)
                 (A) (A) (A) (A) (A) (A) (A) (A) (A) (A) (A) (A)
                 (A) (A) (A) (A) (A) (A) (A) (A) (A) (A) (A) (A)
                 (A) (A)
 The electronic state is 1-A.
 Alpha  occ. eigenvalues --  -19.65786 -19.61251 -10.60292  -1.18104  -1.10460
 Alpha  occ. eigenvalues --   -0.65806  -0.53856  -0.50715  -0.48002  -0.40369
 Alpha  occ. eigenvalues --   -0.37251  -0.21245
 Alpha virt. eigenvalues --    0.05652   0.06205   0.06538   0.08249   0.11690
 Alpha virt. eigenvalues --    0.18773   0.19639   0.22648   0.23488   0.26098
 Alpha virt. eigenvalues --    0.26549   0.28233   0.31491   0.34151   0.41133
 Alpha virt. eigenvalues --    0.51698   0.72780   0.73873   0.85169   1.03792
 Alpha virt. eigenvalues --    1.12871   1.20293   1.23042   1.27576   1.29546
 Alpha virt. eigenvalues --    1.30472   1.36751   1.48385   1.55794   1.56570
 Alpha virt. eigenvalues --    1.58652   1.62707   1.71673   1.87172   1.90532
 Alpha virt. eigenvalues --    1.91801   2.15759   2.39097   2.40527   2.49580
 Alpha virt. eigenvalues --    2.63045   2.63521   2.75398   2.91393   2.98347
 Alpha virt. eigenvalues --    3.22452   3.49572   4.13824   4.18661   4.41666
          Condensed to atoms (all electrons):
               1          2          3          4
     1  H    0.323831  -0.040342   0.273512   0.006520
     2  C   -0.040342   5.989032  -0.108597   0.314630
     3  O    0.273512  -0.108597   8.513045  -0.111155
     4  O    0.006520   0.314630  -0.111155   8.504957
 Mulliken charges:
               1
     1  H    0.436478
     2  C   -0.154722
     3  O   -0.566805
     4  O   -0.714951
 Sum of Mulliken charges =  -1.00000
 Mulliken charges with hydrogens summed into heavy atoms:
               1
     2  C   -0.154722
     3  O   -0.130326
     4  O   -0.714951
 Electronic spatial extent (au):  <R**2>=            142.2720
 Charge=             -1.0000 electrons
 Dipole moment (field-independent basis, Debye):
    X=              4.1937    Y=             -0.3394    Z=              0.0008  Tot=              4.2074
 Quadrupole moment (field-independent basis, Debye-Ang):
   XX=            -21.8770   YY=            -25.3018   ZZ=            -20.6403
   XY=              2.1601   XZ=              0.0015   YZ=              0.0009
 Traceless Quadrupole moment (field-independent basis, Debye-Ang):
   XX=              0.7293   YY=             -2.6955   ZZ=              1.9661
   XY=              2.1601   XZ=              0.0015   YZ=              0.0009
 Octapole moment (field-independent basis, Debye-Ang**2):
  XXX=             17.8921  YYY=            -11.7172  ZZZ=              0.0011  XYY=              1.8060
  XXY=              3.8024  XXZ=              0.0028  XZZ=              0.5908  YZZ=             -2.5562
  YYZ=              0.0009  XYZ=              0.0006
 Hexadecapole moment (field-independent basis, Debye-Ang**3):
 XXXX=           -117.2323 YYYY=            -62.2772 ZZZZ=            -28.1069 XXXY=              7.9689
 XXXZ=              0.0053 YYYX=              1.2200 YYYZ=              0.0019 ZZZX=              0.0007
 ZZZY=              0.0014 XXYY=            -29.8440 XXZZ=            -26.7149 YYZZ=            -14.4882
 XXYZ=              0.0016 YYXZ=              0.0005 ZZXY=              0.3561
 N-N= 6.175718115597D+01 E-N=-5.749182816562D+02  KE= 1.876668031389D+02
 D1PCM: PCM CHGder 1st derivatives, ID1Alg=3 FixD1E=F DoIter=F DoCFld=F I1PDM=0.
 Calling FoFJK, ICntrl=      2127 FMM=F ISym2X=0 I1Cent= 0 IOpClX= 0 NMat=1 NMatS=1 NMatT=0.
 ***** Axes restored to original set *****
 -------------------------------------------------------------------
 Center     Atomic                   Forces (Hartrees/Bohr)
 Number     Number              X              Y              Z
 -------------------------------------------------------------------
      1        1          -0.008404142   -0.008900013    0.000005973
      2        6           0.081461881   -0.009995278    0.000060922
      3        8          -0.031333679    0.016237212   -0.000038007
      4        8          -0.041724061    0.002658079   -0.000028888
 -------------------------------------------------------------------
 Cartesian Forces:  Max     0.081461881 RMS     0.028692622

 GradGradGradGradGradGradGradGradGradGradGradGradGradGradGradGradGradGrad
 Berny optimization.
 FormGI is forming the generalized inverse of G from B-inverse, IUseBI=4.
 Internal  Forces:  Max     0.083056006 RMS     0.036559648
 Search for a local minimum.
 Step number   1 out of a maximum of   20
 All quantities printed in internal units (Hartrees-Bohrs-Radians)
 Mixed Optimization -- RFO/linear search
 Second derivative matrix not updated -- first step.
 The second derivative matrix:
                          R1        R2        R3        A1        A2
           R1           0.52075
           R2           0.00000   0.51700
           R3           0.00000   0.00000   0.94497
           A1           0.00000   0.00000   0.00000   0.25000
           A2           0.00000   0.00000   0.00000   0.00000   0.16000
           D1           0.00000   0.00000   0.00000   0.00000   0.00000
                          D1
           D1           0.02138
 ITU=  0
     Eigenvalues ---    0.02138   0.16000   0.25000   0.51700   0.52075
     Eigenvalues ---    0.94497
 RFO step:  Lambda=-2.66499493D-02 EMin= 2.13793727D-02
 Linear search not attempted -- first point.
 Maximum step size (   0.300) exceeded in Quadratic search.
    -- Step size scaled by   0.983
 Iteration  1 RMS(Cart)=  0.10292177 RMS(Int)=  0.04178877
 Iteration  2 RMS(Cart)=  0.06221351 RMS(Int)=  0.00232310
 Iteration  3 RMS(Cart)=  0.00203653 RMS(Int)=  0.00000021
 Iteration  4 RMS(Cart)=  0.00000032 RMS(Int)=  0.00000000
 Variable       Old X    -DE/DX   Delta X   Delta X   Delta X     New X
                                 (Linear)    (Quad)   (Total)
    R1        1.84528  -0.01204   0.00000  -0.02163  -0.02163   1.82365
    R2        2.58188   0.02223   0.00000   0.04021   0.04021   2.62209
    R3        2.30927   0.02172   0.00000   0.02198   0.02198   2.33126
    A1        2.12969  -0.08306   0.00000  -0.29520  -0.29520   1.83448
    A2        1.85164  -0.00321   0.00000  -0.01693  -0.01693   1.83470
    D1       -3.14115  -0.00001   0.00000  -0.00028  -0.00028  -3.14143
         Item               Value     Threshold  Converged?
 Maximum Force            0.083056     0.000450     NO 
 RMS     Force            0.036560     0.000300     NO 
 Maximum Displacement     0.241120     0.001800     NO 
 RMS     Displacement     0.162739     0.001200     NO 
 Predicted change in Energy=-1.452050D-02
 GradGradGradGradGradGradGradGradGradGradGradGradGradGradGradGradGradGrad

                          Input orientation:                          
 ---------------------------------------------------------------------
 Center     Atomic      Atomic             Coordinates (Angstroms)
 Number     Number       Type             X           Y           Z
 ---------------------------------------------------------------------
      1          1           0       -1.190601    1.719427   -0.000090
      2          6           0       -1.221224   -0.165839    0.000234
      3          8           0       -1.887121    1.051482   -0.000406
      4          8           0       -2.111808   -1.019505   -0.000361
 ---------------------------------------------------------------------
                    Distance matrix (angstroms):
                    1          2          3          4
     1  H    0.000000
     2  C    1.885515   0.000000
     3  O    0.965034   1.387549   0.000000
     4  O    2.889701   1.233647   2.083140   0.000000
 Stoichiometry    CHO2(1-)
 Framework group  C1[X(CHO2)]
 Deg. of freedom     6
 Full point group                 C1      NOp   1
 Largest Abelian subgroup         C1      NOp   1
 Largest concise Abelian subgroup C1      NOp   1
                         Standard orientation:                         
 ---------------------------------------------------------------------
 Center     Atomic      Atomic             Coordinates (Angstroms)
 Number     Number       Type             X           Y           Z
 ---------------------------------------------------------------------
      1          1           0        1.736176    0.350792    0.000113
      2          6           0       -0.137435    0.562338   -0.000015
      3          8           0        0.984376   -0.254260   -0.000014
      4          8           0       -1.098322   -0.211342    0.000011
 ---------------------------------------------------------------------
 Rotational constants (GHZ):          89.4044752          13.2979431          11.5761210
 Standard basis: 6-31+G(d,p) (6D, 7F)
 There are    62 symmetry adapted cartesian basis functions of A   symmetry.
 There are    62 symmetry adapted basis functions of A   symmetry.
    62 basis functions,   103 primitive gaussians,    62 cartesian basis functions
    12 alpha electrons       12 beta electrons
       nuclear repulsion energy        62.6893544302 Hartrees.
 NAtoms=    4 NActive=    4 NUniq=    4 SFac= 1.00D+00 NAtFMM=   60 NAOKFM=F Big=F
 Integral buffers will be    131072 words long.
 Raffenetti 2 integral format.
 Two-electron integral symmetry is turned on.
 ------------------------------------------------------------------------------
 Polarizable Continuum Model (PCM)
 =================================
 Model                : PCM.
 Atomic radii         : SMD-Coulomb.
 Polarization charges : Total charges.
 Charge compensation  : None.
 Solution method      : On-the-fly selection.
 Cavity type          : VdW (van der Waals Surface) (Alpha=1.000).
 Cavity algorithm     : GePol (No added spheres)
                        Default sphere list used, NSphG=    4.
                        Lebedev-Laikov grids with approx.  5.0 points / Ang**2.
                        Smoothing algorithm: York/Karplus (Gamma=1.0000).
                        Polarization charges: spherical gaussians, with
                                              point-specific exponents (IZeta= 3).
                        Self-potential: point-specific (ISelfS= 7).
                        Self-field    : sphere-specific E.n sum rule (ISelfD= 2).
 1st derivatives      : Analytical E(r).r(x)/FMM algorithm (CHGder, D1EAlg=3).
                        Cavity 1st derivative terms included.
 Solvent              : Water, Eps=  78.355300 Eps(inf)=   1.777849
 ------------------------------------------------------------------------------
 Spheres list:
 ISph  on   Nord     Re0    Alpha      Xe            Ye            Ze
    1   H      1    1.2000  1.000      1.736176      0.350792      0.000113
    2   C      2    1.8500  1.000     -0.137435      0.562338     -0.000015
    3   O      3    1.5200  1.000      0.984376     -0.254260     -0.000014
    4   O      4    1.5200  1.000     -1.098322     -0.211342      0.000011
 ------------------------------------------------------------------------------
 ------------------------------------------------------------------------------
 Atomic radii for non-electrostatic terms: SMD-CDS.
 ------------------------------------------------------------------------------
 Nuclear repulsion after PCM non-electrostatic terms =       62.6974997959 Hartrees.
 One-electron integrals computed using PRISM.
 NBasis=    62 RedAO= T EigKep=  4.21D-03  NBF=    62
 NBsUse=    62 1.00D-06 EigRej= -1.00D+00 NBFU=    62
 Initial guess from the checkpoint file:  "/scratch/gongke2021/1-H-Tz-HCOO-/Gau-32669.chk"
 B after Tr=     0.000000   -0.000000   -0.000000
         Rot=    0.999999   -0.000024   -0.000001   -0.001069 Ang=  -0.12 deg.
 ExpMin= 4.38D-02 ExpMax= 5.48D+03 ExpMxC= 8.25D+02 IAcc=2 IRadAn=         4 AccDes= 0.00D+00
 Harris functional with IExCor= 1009 and IRadAn=       4 diagonalized for initial guess.
 HarFok:  IExCor= 1009 AccDes= 0.00D+00 IRadAn=         4 IDoV= 1 UseB2=F ITyADJ=14
 ICtDFT=  3500011 ScaDFX=  1.000000  1.000000  1.000000  1.000000
 FoFCou: FMM=F IPFlag=           0 FMFlag=      100000 FMFlg1=           0
         NFxFlg=           0 DoJE=T BraDBF=F KetDBF=T FulRan=T
         wScrn=  0.000000 ICntrl=       500 IOpCl=  0 I1Cent=   200000004 NGrid=           0
         NMat0=    1 NMatS0=      1 NMatT0=    0 NMatD0=    1 NMtDS0=    0 NMtDT0=    0
 Petite list used in FoFCou.
 Keep R1 ints in memory in canonical form, NReq=19599261.
 Requested convergence on RMS density matrix=1.00D-08 within 128 cycles.
 Requested convergence on MAX density matrix=1.00D-06.
 Requested convergence on             energy=1.00D-06.
 No special actions if energy rises.
 Inv3:  Mode=1 IEnd=      557283.
 Iteration    1 A*A^-1 deviation from unit magnitude is 2.66D-15 for    201.
 Iteration    1 A*A^-1 deviation from orthogonality  is 2.58D-15 for    414     70.
 Iteration    1 A^-1*A deviation from unit magnitude is 2.44D-15 for    204.
 Iteration    1 A^-1*A deviation from orthogonality  is 8.20D-16 for    204    172.
 Error on total polarization charges =  0.06362
 SCF Done:  E(RM062X) =  -189.184644549     A.U. after   12 cycles
            NFock= 12  Conv=0.30D-08     -V/T= 2.0076
 SMD-CDS (non-electrostatic) energy       (kcal/mol) =       5.11
 (included in total energy above)
 D1PCM: PCM CHGder 1st derivatives, ID1Alg=3 FixD1E=F DoIter=F DoCFld=F I1PDM=0.
 Calling FoFJK, ICntrl=      2127 FMM=F ISym2X=0 I1Cent= 0 IOpClX= 0 NMat=1 NMatS=1 NMatT=0.
 ***** Axes restored to original set *****
 -------------------------------------------------------------------
 Center     Atomic                   Forces (Hartrees/Bohr)
 Number     Number              X              Y              Z
 -------------------------------------------------------------------
      1        1          -0.000975981    0.006950901    0.000001470
      2        6          -0.001948335   -0.005059824   -0.000002889
      3        8           0.006496214    0.033365331   -0.000002057
      4        8          -0.003571899   -0.035256409    0.000003476
 -------------------------------------------------------------------
 Cartesian Forces:  Max     0.035256409 RMS     0.014404526

 GradGradGradGradGradGradGradGradGradGradGradGradGradGradGradGradGradGrad
 Berny optimization.
 Using GEDIIS/GDIIS optimizer.
 FormGI is forming the generalized inverse of G from B-inverse, IUseBI=4.
 Internal  Forces:  Max     0.053404482 RMS     0.028198906
 Search for a local minimum.
 Step number   2 out of a maximum of   20
 All quantities printed in internal units (Hartrees-Bohrs-Radians)
 Mixed Optimization -- RFO/linear search
 Update second derivatives using D2CorX and points    1    2
 DE= -7.59D-03 DEPred=-1.45D-02 R= 5.22D-01
 TightC=F SS=  1.41D+00  RLast= 3.00D-01 DXNew= 5.0454D-01 9.0000D-01
 Trust test= 5.22D-01 RLast= 3.00D-01 DXMaxT set to 5.05D-01
 The second derivative matrix:
                          R1        R2        R3        A1        A2
           R1           0.52181
           R2           0.01420   0.50121
           R3           0.01213  -0.01711   0.92719
           A1           0.01919   0.10096   0.08350   0.47870
           A2           0.00410   0.00590   0.00418   0.03705   0.16419
           D1           0.00000   0.00001   0.00001   0.00001   0.00000
                          D1
           D1           0.02138
 ITU=  1  0
 Use linear search instead of GDIIS.
     Eigenvalues ---    0.02138   0.15971   0.38076   0.51490   0.59477
     Eigenvalues ---    0.94295
 RFO step:  Lambda=-2.83218641D-03 EMin= 2.13793725D-02
 Quartic linear search produced a step of -0.30107.
 Iteration  1 RMS(Cart)=  0.06479730 RMS(Int)=  0.00125840
 Iteration  2 RMS(Cart)=  0.00089280 RMS(Int)=  0.00000058
 Iteration  3 RMS(Cart)=  0.00000087 RMS(Int)=  0.00000000
 Variable       Old X    -DE/DX   Delta X   Delta X   Delta X     New X
                                 (Linear)    (Quad)   (Total)
    R1        1.82365   0.00414   0.00651  -0.00463   0.00188   1.82553
    R2        2.62209   0.03266  -0.01211   0.06280   0.05070   2.67278
    R3        2.33126   0.02701  -0.00662   0.02969   0.02307   2.35433
    A1        1.83448   0.05340   0.08888  -0.00865   0.08023   1.91471
    A2        1.83470   0.01026   0.00510   0.03399   0.03909   1.87379
    D1       -3.14143  -0.00001   0.00009  -0.00063  -0.00054   3.14121
         Item               Value     Threshold  Converged?
 Maximum Force            0.053404     0.000450     NO 
 RMS     Force            0.028199     0.000300     NO 
 Maximum Displacement     0.110874     0.001800     NO 
 RMS     Displacement     0.064770     0.001200     NO 
 Predicted change in Energy=-3.732945D-03
 GradGradGradGradGradGradGradGradGradGradGradGradGradGradGradGradGradGrad

                          Input orientation:                          
 ---------------------------------------------------------------------
 Center     Atomic      Atomic             Coordinates (Angstroms)
 Number     Number       Type             X           Y           Z
 ---------------------------------------------------------------------
      1          1           0       -1.179951    1.756021    0.000068
      2          6           0       -1.245854   -0.179101    0.000095
      3          8           0       -1.876644    1.086822   -0.000558
      4          8           0       -2.108305   -1.078177   -0.000229
 ---------------------------------------------------------------------
                    Distance matrix (angstroms):
                    1          2          3          4
     1  H    0.000000
     2  C    1.936245   0.000000
     3  O    0.966028   1.414376   0.000000
     4  O    2.982369   1.245857   2.177358   0.000000
 Stoichiometry    CHO2(1-)
 Framework group  C1[X(CHO2)]
 Deg. of freedom     6
 Full point group                 C1      NOp   1
 Largest Abelian subgroup         C1      NOp   1
 Largest concise Abelian subgroup C1      NOp   1
                         Standard orientation:                         
 ---------------------------------------------------------------------
 Center     Atomic      Atomic             Coordinates (Angstroms)
 Number     Number       Type             X           Y           Z
 ---------------------------------------------------------------------
      1          1           0        1.783132    0.360172   -0.000270
      2          6           0       -0.144825    0.539123    0.000037
      3          8           0        1.031325   -0.246454    0.000033
      4          8           0       -1.145598   -0.202910   -0.000027
 ---------------------------------------------------------------------
 Rotational constants (GHZ):          96.5545196          12.2064380          10.8364875
 Standard basis: 6-31+G(d,p) (6D, 7F)
 There are    62 symmetry adapted cartesian basis functions of A   symmetry.
 There are    62 symmetry adapted basis functions of A   symmetry.
    62 basis functions,   103 primitive gaussians,    62 cartesian basis functions
    12 alpha electrons       12 beta electrons
       nuclear repulsion energy        61.3426984160 Hartrees.
 NAtoms=    4 NActive=    4 NUniq=    4 SFac= 1.00D+00 NAtFMM=   60 NAOKFM=F Big=F
 Integral buffers will be    131072 words long.
 Raffenetti 2 integral format.
 Two-electron integral symmetry is turned on.
 ------------------------------------------------------------------------------
 Polarizable Continuum Model (PCM)
 =================================
 Model                : PCM.
 Atomic radii         : SMD-Coulomb.
 Polarization charges : Total charges.
 Charge compensation  : None.
 Solution method      : On-the-fly selection.
 Cavity type          : VdW (van der Waals Surface) (Alpha=1.000).
 Cavity algorithm     : GePol (No added spheres)
                        Default sphere list used, NSphG=    4.
                        Lebedev-Laikov grids with approx.  5.0 points / Ang**2.
                        Smoothing algorithm: York/Karplus (Gamma=1.0000).
                        Polarization charges: spherical gaussians, with
                                              point-specific exponents (IZeta= 3).
                        Self-potential: point-specific (ISelfS= 7).
                        Self-field    : sphere-specific E.n sum rule (ISelfD= 2).
 1st derivatives      : Analytical E(r).r(x)/FMM algorithm (CHGder, D1EAlg=3).
                        Cavity 1st derivative terms included.
 Solvent              : Water, Eps=  78.355300 Eps(inf)=   1.777849
 ------------------------------------------------------------------------------
 Spheres list:
 ISph  on   Nord     Re0    Alpha      Xe            Ye            Ze
    1   H      1    1.2000  1.000      1.783132      0.360172     -0.000270
    2   C      2    1.8500  1.000     -0.144825      0.539123      0.000037
    3   O      3    1.5200  1.000      1.031325     -0.246454      0.000033
    4   O      4    1.5200  1.000     -1.145598     -0.202910     -0.000027
 ------------------------------------------------------------------------------
 ------------------------------------------------------------------------------
 Atomic radii for non-electrostatic terms: SMD-CDS.
 ------------------------------------------------------------------------------
 Nuclear repulsion after PCM non-electrostatic terms =       61.3506039938 Hartrees.
 One-electron integrals computed using PRISM.
 NBasis=    62 RedAO= T EigKep=  4.56D-03  NBF=    62
 NBsUse=    62 1.00D-06 EigRej= -1.00D+00 NBFU=    62
 Initial guess from the checkpoint file:  "/scratch/gongke2021/1-H-Tz-HCOO-/Gau-32669.chk"
 B after Tr=     0.000000   -0.000000   -0.000000
         Rot=    1.000000   -0.000001   -0.000000   -0.000968 Ang=  -0.11 deg.
 ExpMin= 4.38D-02 ExpMax= 5.48D+03 ExpMxC= 8.25D+02 IAcc=2 IRadAn=         4 AccDes= 0.00D+00
 Harris functional with IExCor= 1009 and IRadAn=       4 diagonalized for initial guess.
 HarFok:  IExCor= 1009 AccDes= 0.00D+00 IRadAn=         4 IDoV= 1 UseB2=F ITyADJ=14
 ICtDFT=  3500011 ScaDFX=  1.000000  1.000000  1.000000  1.000000
 FoFCou: FMM=F IPFlag=           0 FMFlag=      100000 FMFlg1=           0
         NFxFlg=           0 DoJE=T BraDBF=F KetDBF=T FulRan=T
         wScrn=  0.000000 ICntrl=       500 IOpCl=  0 I1Cent=   200000004 NGrid=           0
         NMat0=    1 NMatS0=      1 NMatT0=    0 NMatD0=    1 NMtDS0=    0 NMtDT0=    0
 Petite list used in FoFCou.
 Keep R1 ints in memory in canonical form, NReq=19599261.
 Requested convergence on RMS density matrix=1.00D-08 within 128 cycles.
 Requested convergence on MAX density matrix=1.00D-06.
 Requested convergence on             energy=1.00D-06.
 No special actions if energy rises.
 Inv3:  Mode=1 IEnd=      567675.
 Iteration    1 A*A^-1 deviation from unit magnitude is 3.33D-15 for    429.
 Iteration    1 A*A^-1 deviation from orthogonality  is 1.58D-15 for    281    203.
 Iteration    1 A^-1*A deviation from unit magnitude is 3.55D-15 for    429.
 Iteration    1 A^-1*A deviation from orthogonality  is 1.29D-15 for    428    309.
 Error on total polarization charges =  0.06463
 SCF Done:  E(RM062X) =  -189.187920064     A.U. after   11 cycles
            NFock= 11  Conv=0.29D-08     -V/T= 2.0084
 SMD-CDS (non-electrostatic) energy       (kcal/mol) =       4.96
 (included in total energy above)
 D1PCM: PCM CHGder 1st derivatives, ID1Alg=3 FixD1E=F DoIter=F DoCFld=F I1PDM=0.
 Calling FoFJK, ICntrl=      2127 FMM=F ISym2X=0 I1Cent= 0 IOpClX= 0 NMat=1 NMatS=1 NMatT=0.
 ***** Axes restored to original set *****
 -------------------------------------------------------------------
 Center     Atomic                   Forces (Hartrees/Bohr)
 Number     Number              X              Y              Z
 -------------------------------------------------------------------
      1        1           0.001302378    0.000015826   -0.000005926
      2        6          -0.001770536   -0.005098366    0.000005865
      3        8          -0.003108357    0.000947549    0.000004236
      4        8           0.003576514    0.004134992   -0.000004175
 -------------------------------------------------------------------
 Cartesian Forces:  Max     0.005098366 RMS     0.002437109

 GradGradGradGradGradGradGradGradGradGradGradGradGradGradGradGradGradGrad
 Berny optimization.
 Using GEDIIS/GDIIS optimizer.
 FormGI is forming the generalized inverse of G from B-inverse, IUseBI=4.
 Internal  Forces:  Max     0.005403824 RMS     0.002480671
 Search for a local minimum.
 Step number   3 out of a maximum of   20
 All quantities printed in internal units (Hartrees-Bohrs-Radians)
 Mixed Optimization -- RFO/linear search
 Update second derivatives using D2CorX and points    1    2    3
 DE= -3.28D-03 DEPred=-3.73D-03 R= 8.77D-01
 TightC=F SS=  1.41D+00  RLast= 1.05D-01 DXNew= 8.4853D-01 3.1565D-01
 Trust test= 8.77D-01 RLast= 1.05D-01 DXMaxT set to 5.05D-01
 The second derivative matrix:
                          R1        R2        R3        A1        A2
           R1           0.52224
           R2           0.00777   0.44500
           R3           0.00629  -0.01802   0.97427
           A1           0.01873   0.10630   0.12459   0.54732
           A2           0.00285   0.01022   0.02154   0.05481   0.17050
           D1           0.00000  -0.00003  -0.00005  -0.00004  -0.00002
                          D1
           D1           0.02138
 ITU=  1  1  0
 Use linear search instead of GDIIS.
     Eigenvalues ---    0.02138   0.16259   0.36839   0.51800   0.60042
     Eigenvalues ---    1.00994
 RFO step:  Lambda=-4.99719981D-05 EMin= 2.13794166D-02
 Quartic linear search produced a step of -0.02923.
 Iteration  1 RMS(Cart)=  0.00543611 RMS(Int)=  0.00002808
 Iteration  2 RMS(Cart)=  0.00002724 RMS(Int)=  0.00000000
 Iteration  3 RMS(Cart)=  0.00000000 RMS(Int)=  0.00000000
 Variable       Old X    -DE/DX   Delta X   Delta X   Delta X     New X
                                 (Linear)    (Quad)   (Total)
    R1        1.82553   0.00101  -0.00005   0.00207   0.00201   1.82754
    R2        2.67278   0.00158  -0.00148   0.00494   0.00346   2.67624
    R3        2.35433  -0.00540  -0.00067  -0.00457  -0.00524   2.34909
    A1        1.91471  -0.00095  -0.00235   0.00186  -0.00048   1.91423
    A2        1.87379  -0.00182  -0.00114  -0.00936  -0.01050   1.86329
    D1        3.14121   0.00001   0.00002   0.00059   0.00060  -3.14137
         Item               Value     Threshold  Converged?
 Maximum Force            0.005404     0.000450     NO 
 RMS     Force            0.002481     0.000300     NO 
 Maximum Displacement     0.007649     0.001800     NO 
 RMS     Displacement     0.005446     0.001200     NO 
 Predicted change in Energy=-2.735940D-05
 GradGradGradGradGradGradGradGradGradGradGradGradGradGradGradGradGradGrad

                          Input orientation:                          
 ---------------------------------------------------------------------
 Center     Atomic      Atomic             Coordinates (Angstroms)
 Number     Number       Type             X           Y           Z
 ---------------------------------------------------------------------
      1          1           0       -1.177506    1.752086   -0.000101
      2          6           0       -1.246657   -0.178187    0.000236
      3          8           0       -1.880692    1.088160   -0.000395
      4          8           0       -2.105899   -1.076494   -0.000363
 ---------------------------------------------------------------------
                    Distance matrix (angstroms):
                    1          2          3          4
     1  H    0.000000
     2  C    1.931510   0.000000
     3  O    0.967092   1.416204   0.000000
     4  O    2.977041   1.243083   2.176337   0.000000
 Stoichiometry    CHO2(1-)
 Framework group  C1[X(CHO2)]
 Deg. of freedom     6
 Full point group                 C1      NOp   1
 Largest Abelian subgroup         C1      NOp   1
 Largest concise Abelian subgroup C1      NOp   1
                         Standard orientation:                         
 ---------------------------------------------------------------------
 Center     Atomic      Atomic             Coordinates (Angstroms)
 Number     Number       Type             X           Y           Z
 ---------------------------------------------------------------------
      1          1           0        1.777541    0.368619    0.000156
      2          6           0       -0.146472    0.538635   -0.000021
      3          8           0        1.031776   -0.247092   -0.000019
      4          8           0       -1.144114   -0.202961    0.000015
 ---------------------------------------------------------------------
 Rotational constants (GHZ):          96.4692287          12.2220334          10.8476994
 Standard basis: 6-31+G(d,p) (6D, 7F)
 There are    62 symmetry adapted cartesian basis functions of A   symmetry.
 There are    62 symmetry adapted basis functions of A   symmetry.
    62 basis functions,   103 primitive gaussians,    62 cartesian basis functions
    12 alpha electrons       12 beta electrons
       nuclear repulsion energy        61.3740466017 Hartrees.
 NAtoms=    4 NActive=    4 NUniq=    4 SFac= 1.00D+00 NAtFMM=   60 NAOKFM=F Big=F
 Integral buffers will be    131072 words long.
 Raffenetti 2 integral format.
 Two-electron integral symmetry is turned on.
 ------------------------------------------------------------------------------
 Polarizable Continuum Model (PCM)
 =================================
 Model                : PCM.
 Atomic radii         : SMD-Coulomb.
 Polarization charges : Total charges.
 Charge compensation  : None.
 Solution method      : On-the-fly selection.
 Cavity type          : VdW (van der Waals Surface) (Alpha=1.000).
 Cavity algorithm     : GePol (No added spheres)
                        Default sphere list used, NSphG=    4.
                        Lebedev-Laikov grids with approx.  5.0 points / Ang**2.
                        Smoothing algorithm: York/Karplus (Gamma=1.0000).
                        Polarization charges: spherical gaussians, with
                                              point-specific exponents (IZeta= 3).
                        Self-potential: point-specific (ISelfS= 7).
                        Self-field    : sphere-specific E.n sum rule (ISelfD= 2).
 1st derivatives      : Analytical E(r).r(x)/FMM algorithm (CHGder, D1EAlg=3).
                        Cavity 1st derivative terms included.
 Solvent              : Water, Eps=  78.355300 Eps(inf)=   1.777849
 ------------------------------------------------------------------------------
 Spheres list:
 ISph  on   Nord     Re0    Alpha      Xe            Ye            Ze
    1   H      1    1.2000  1.000      1.777541      0.368619      0.000156
    2   C      2    1.8500  1.000     -0.146472      0.538635     -0.000021
    3   O      3    1.5200  1.000      1.031776     -0.247092     -0.000019
    4   O      4    1.5200  1.000     -1.144114     -0.202961      0.000015
 ------------------------------------------------------------------------------
 ------------------------------------------------------------------------------
 Atomic radii for non-electrostatic terms: SMD-CDS.
 ------------------------------------------------------------------------------
 Nuclear repulsion after PCM non-electrostatic terms =       61.3819539021 Hartrees.
 One-electron integrals computed using PRISM.
 NBasis=    62 RedAO= T EigKep=  4.53D-03  NBF=    62
 NBsUse=    62 1.00D-06 EigRej= -1.00D+00 NBFU=    62
 Initial guess from the checkpoint file:  "/scratch/gongke2021/1-H-Tz-HCOO-/Gau-32669.chk"
 B after Tr=     0.000000    0.000000    0.000000
         Rot=    1.000000   -0.000000   -0.000000   -0.000427 Ang=  -0.05 deg.
 Keep R1 ints in memory in canonical form, NReq=19599261.
 Requested convergence on RMS density matrix=1.00D-08 within 128 cycles.
 Requested convergence on MAX density matrix=1.00D-06.
 Requested convergence on             energy=1.00D-06.
 No special actions if energy rises.
 Inv3:  Mode=1 IEnd=      562467.
 Iteration    1 A*A^-1 deviation from unit magnitude is 2.44D-15 for    432.
 Iteration    1 A*A^-1 deviation from orthogonality  is 1.34D-15 for    401     71.
 Iteration    1 A^-1*A deviation from unit magnitude is 2.44D-15 for     98.
 Iteration    1 A^-1*A deviation from orthogonality  is 9.62D-16 for    426    339.
 Error on total polarization charges =  0.06461
 SCF Done:  E(RM062X) =  -189.187955517     A.U. after    9 cycles
            NFock=  9  Conv=0.90D-08     -V/T= 2.0084
 SMD-CDS (non-electrostatic) energy       (kcal/mol) =       4.96
 (included in total energy above)
 D1PCM: PCM CHGder 1st derivatives, ID1Alg=3 FixD1E=F DoIter=F DoCFld=F I1PDM=0.
 Calling FoFJK, ICntrl=      2127 FMM=F ISym2X=0 I1Cent= 0 IOpClX= 0 NMat=1 NMatS=1 NMatT=0.
 ***** Axes restored to original set *****
 -------------------------------------------------------------------
 Center     Atomic                   Forces (Hartrees/Bohr)
 Number     Number              X              Y              Z
 -------------------------------------------------------------------
      1        1          -0.000001541   -0.000054701    0.000004039
      2        6          -0.000686492   -0.002975754   -0.000003500
      3        8          -0.000978700    0.001392910   -0.000004836
      4        8           0.001666733    0.001637545    0.000004297
 -------------------------------------------------------------------
 Cartesian Forces:  Max     0.002975754 RMS     0.001214052

 GradGradGradGradGradGradGradGradGradGradGradGradGradGradGradGradGradGrad
 Berny optimization.
 Using GEDIIS/GDIIS optimizer.
 FormGI is forming the generalized inverse of G from B-inverse, IUseBI=4.
 Internal  Forces:  Max     0.002281975 RMS     0.001131762
 Search for a local minimum.
 Step number   4 out of a maximum of   20
 All quantities printed in internal units (Hartrees-Bohrs-Radians)
 Mixed Optimization -- RFO/linear search
 Update second derivatives using D2CorX and points    1    2    3    4
 DE= -3.55D-05 DEPred=-2.74D-05 R= 1.30D+00
 TightC=F SS=  1.41D+00  RLast= 1.24D-02 DXNew= 8.4853D-01 3.7270D-02
 Trust test= 1.30D+00 RLast= 1.24D-02 DXMaxT set to 5.05D-01
 The second derivative matrix:
                          R1        R2        R3        A1        A2
           R1           0.53283
           R2          -0.01666   0.38414
           R3           0.01716   0.11964   0.72211
           A1           0.01760   0.12906   0.09422   0.54984
           A2          -0.00712   0.05482  -0.02495   0.05413   0.17563
           D1           0.00032  -0.00028  -0.00043  -0.00020  -0.00042
                          D1
           D1           0.02139
 ITU=  1  1  1  0
 Use linear search instead of GDIIS.
     Eigenvalues ---    0.02139   0.15471   0.30678   0.53445   0.54195
     Eigenvalues ---    0.82666
 RFO step:  Lambda=-3.03304118D-05 EMin= 2.13853246D-02
 Quartic linear search produced a step of  2.00000.
 Iteration  1 RMS(Cart)=  0.01360873 RMS(Int)=  0.00020218
 Iteration  2 RMS(Cart)=  0.00018358 RMS(Int)=  0.00000001
 Iteration  3 RMS(Cart)=  0.00000001 RMS(Int)=  0.00000000
 Variable       Old X    -DE/DX   Delta X   Delta X   Delta X     New X
                                 (Linear)    (Quad)   (Total)
    R1        1.82754   0.00002   0.00402  -0.00243   0.00160   1.82914
    R2        2.67624   0.00155   0.00691   0.00651   0.01342   2.68966
    R3        2.34909  -0.00228  -0.01049   0.00172  -0.00877   2.34032
    A1        1.91423  -0.00010  -0.00097   0.00141   0.00044   1.91467
    A2        1.86329  -0.00026  -0.02100  -0.00552  -0.02652   1.83677
    D1       -3.14137  -0.00001   0.00120   0.00713   0.00833  -3.13304
         Item               Value     Threshold  Converged?
 Maximum Force            0.002282     0.000450     NO 
 RMS     Force            0.001132     0.000300     NO 
 Maximum Displacement     0.018271     0.001800     NO 
 RMS     Displacement     0.013653     0.001200     NO 
 Predicted change in Energy=-3.825981D-05
 GradGradGradGradGradGradGradGradGradGradGradGradGradGradGradGradGradGrad

                          Input orientation:                          
 ---------------------------------------------------------------------
 Center     Atomic      Atomic             Coordinates (Angstroms)
 Number     Number       Type             X           Y           Z
 ---------------------------------------------------------------------
      1          1           0       -1.171679    1.742441   -0.002489
      2          6           0       -1.248264   -0.176169    0.002215
      3          8           0       -1.890361    1.094072    0.001903
      4          8           0       -2.100450   -1.074779   -0.002252
 ---------------------------------------------------------------------
                    Distance matrix (angstroms):
                    1          2          3          4
     1  H    0.000000
     2  C    1.920143   0.000000
     3  O    0.967938   1.423306   0.000000
     4  O    2.966368   1.238442   2.179007   0.000000
 Stoichiometry    CHO2(1-)
 Framework group  C1[X(CHO2)]
 Deg. of freedom     6
 Full point group                 C1      NOp   1
 Largest Abelian subgroup         C1      NOp   1
 Largest concise Abelian subgroup C1      NOp   1
                         Standard orientation:                         
 ---------------------------------------------------------------------
 Center     Atomic      Atomic             Coordinates (Angstroms)
 Number     Number       Type             X           Y           Z
 ---------------------------------------------------------------------
      1          1           0        1.763610    0.389229    0.006079
      2          6           0       -0.150767    0.537769   -0.000868
      3          8           0        1.035580   -0.248603   -0.000717
      4          8           0       -1.142957   -0.203377    0.000609
 ---------------------------------------------------------------------
 Rotational constants (GHZ):          96.1429817          12.2068675          10.8316480
 Standard basis: 6-31+G(d,p) (6D, 7F)
 There are    62 symmetry adapted cartesian basis functions of A   symmetry.
 There are    62 symmetry adapted basis functions of A   symmetry.
    62 basis functions,   103 primitive gaussians,    62 cartesian basis functions
    12 alpha electrons       12 beta electrons
       nuclear repulsion energy        61.3530713121 Hartrees.
 NAtoms=    4 NActive=    4 NUniq=    4 SFac= 1.00D+00 NAtFMM=   60 NAOKFM=F Big=F
 Integral buffers will be    131072 words long.
 Raffenetti 2 integral format.
 Two-electron integral symmetry is turned on.
 ------------------------------------------------------------------------------
 Polarizable Continuum Model (PCM)
 =================================
 Model                : PCM.
 Atomic radii         : SMD-Coulomb.
 Polarization charges : Total charges.
 Charge compensation  : None.
 Solution method      : On-the-fly selection.
 Cavity type          : VdW (van der Waals Surface) (Alpha=1.000).
 Cavity algorithm     : GePol (No added spheres)
                        Default sphere list used, NSphG=    4.
                        Lebedev-Laikov grids with approx.  5.0 points / Ang**2.
                        Smoothing algorithm: York/Karplus (Gamma=1.0000).
                        Polarization charges: spherical gaussians, with
                                              point-specific exponents (IZeta= 3).
                        Self-potential: point-specific (ISelfS= 7).
                        Self-field    : sphere-specific E.n sum rule (ISelfD= 2).
 1st derivatives      : Analytical E(r).r(x)/FMM algorithm (CHGder, D1EAlg=3).
                        Cavity 1st derivative terms included.
 Solvent              : Water, Eps=  78.355300 Eps(inf)=   1.777849
 ------------------------------------------------------------------------------
 Spheres list:
 ISph  on   Nord     Re0    Alpha      Xe            Ye            Ze
    1   H      1    1.2000  1.000      1.763610      0.389229      0.006079
    2   C      2    1.8500  1.000     -0.150767      0.537769     -0.000868
    3   O      3    1.5200  1.000      1.035580     -0.248603     -0.000717
    4   O      4    1.5200  1.000     -1.142957     -0.203377      0.000609
 ------------------------------------------------------------------------------
 ------------------------------------------------------------------------------
 Atomic radii for non-electrostatic terms: SMD-CDS.
 ------------------------------------------------------------------------------
 Nuclear repulsion after PCM non-electrostatic terms =       61.3609768191 Hartrees.
 One-electron integrals computed using PRISM.
 NBasis=    62 RedAO= T EigKep=  4.49D-03  NBF=    62
 NBsUse=    62 1.00D-06 EigRej= -1.00D+00 NBFU=    62
 Initial guess from the checkpoint file:  "/scratch/gongke2021/1-H-Tz-HCOO-/Gau-32669.chk"
 B after Tr=    -0.000000   -0.000000   -0.000000
         Rot=    0.999999    0.000026    0.000002   -0.001144 Ang=   0.13 deg.
 Keep R1 ints in memory in canonical form, NReq=19599261.
 Requested convergence on RMS density matrix=1.00D-08 within 128 cycles.
 Requested convergence on MAX density matrix=1.00D-06.
 Requested convergence on             energy=1.00D-06.
 No special actions if energy rises.
 Inv3:  Mode=1 IEnd=      562467.
 Iteration    1 A*A^-1 deviation from unit magnitude is 2.66D-15 for    117.
 Iteration    1 A*A^-1 deviation from orthogonality  is 1.34D-15 for    382    106.
 Iteration    1 A^-1*A deviation from unit magnitude is 2.44D-15 for    324.
 Iteration    1 A^-1*A deviation from orthogonality  is 1.30D-15 for    382    106.
 Error on total polarization charges =  0.06448
 SCF Done:  E(RM062X) =  -189.187918383     A.U. after   11 cycles
            NFock= 11  Conv=0.30D-08     -V/T= 2.0084
 SMD-CDS (non-electrostatic) energy       (kcal/mol) =       4.96
 (included in total energy above)
 D1PCM: PCM CHGder 1st derivatives, ID1Alg=3 FixD1E=F DoIter=F DoCFld=F I1PDM=0.
 Calling FoFJK, ICntrl=      2127 FMM=F ISym2X=0 I1Cent= 0 IOpClX= 0 NMat=1 NMatS=1 NMatT=0.
 ***** Axes restored to original set *****
 -------------------------------------------------------------------
 Center     Atomic                   Forces (Hartrees/Bohr)
 Number     Number              X              Y              Z
 -------------------------------------------------------------------
      1        1          -0.001841057    0.001005129    0.000153140
      2        6           0.000136950    0.000714417   -0.000112470
      3        8           0.002866735   -0.000038011   -0.000153234
      4        8          -0.001162627   -0.001681535    0.000112563
 -------------------------------------------------------------------
 Cartesian Forces:  Max     0.002866735 RMS     0.001204161

 GradGradGradGradGradGradGradGradGradGradGradGradGradGradGradGradGradGrad
 Berny optimization.
 Using GEDIIS/GDIIS optimizer.
 FormGI is forming the generalized inverse of G from B-inverse, IUseBI=4.
 Internal  Forces:  Max     0.003464658 RMS     0.001688876
 Search for a local minimum.
 Step number   5 out of a maximum of   20
 All quantities printed in internal units (Hartrees-Bohrs-Radians)
 Mixed Optimization -- RFO/linear search
 Update second derivatives using D2CorX and points    1    2    3    5    4
 DE=  3.71D-05 DEPred=-3.83D-05 R=-9.71D-01
 Trust test=-9.71D-01 RLast= 3.21D-02 DXMaxT set to 2.52D-01
 The second derivative matrix:
                          R1        R2        R3        A1        A2
           R1           0.53641
           R2          -0.01557   0.32543
           R3           0.02244   0.14905   0.76349
           A1           0.02853   0.10917   0.11877   0.54678
           A2          -0.00728   0.06993  -0.01068   0.04949   0.17889
           D1           0.00064  -0.00082  -0.00299  -0.00045  -0.00225
                          D1
           D1           0.02159
 ITU= -1  1  1  1  0
 Use linear search instead of GDIIS.
     Eigenvalues ---    0.02154   0.14260   0.28100   0.50776   0.54059
     Eigenvalues ---    0.87910
 RFO step:  Lambda=-1.05742717D-05 EMin= 2.15404594D-02
 Quartic linear search produced a step of -0.74479.
 Iteration  1 RMS(Cart)=  0.01264483 RMS(Int)=  0.00015941
 Iteration  2 RMS(Cart)=  0.00014012 RMS(Int)=  0.00000000
 Iteration  3 RMS(Cart)=  0.00000000 RMS(Int)=  0.00000000
 Variable       Old X    -DE/DX   Delta X   Delta X   Delta X     New X
                                 (Linear)    (Quad)   (Total)
    R1        1.82914  -0.00064  -0.00119  -0.00002  -0.00121   1.82793
    R2        2.68966   0.00033  -0.01000   0.00389  -0.00610   2.68356
    R3        2.34032   0.00207   0.00653  -0.00210   0.00443   2.34475
    A1        1.91467   0.00050  -0.00033  -0.00054  -0.00087   1.91380
    A2        1.83677   0.00346   0.01975   0.00341   0.02316   1.85993
    D1       -3.13304  -0.00026  -0.00621  -0.00601  -0.01222   3.13793
         Item               Value     Threshold  Converged?
 Maximum Force            0.003465     0.000450     NO 
 RMS     Force            0.001689     0.000300     NO 
 Maximum Displacement     0.017286     0.001800     NO 
 RMS     Displacement     0.012613     0.001200     NO 
 Predicted change in Energy=-5.216325D-06
 GradGradGradGradGradGradGradGradGradGradGradGradGradGradGradGradGradGrad

                          Input orientation:                          
 ---------------------------------------------------------------------
 Center     Atomic      Atomic             Coordinates (Angstroms)
 Number     Number       Type             X           Y           Z
 ---------------------------------------------------------------------
      1          1           0       -1.176733    1.751588    0.001003
      2          6           0       -1.246752   -0.179910   -0.000721
      3          8           0       -1.882371    1.089975   -0.001433
      4          8           0       -2.104897   -1.076088    0.000528
 ---------------------------------------------------------------------
                    Distance matrix (angstroms):
                    1          2          3          4
     1  H    0.000000
     2  C    1.932767   0.000000
     3  O    0.967297   1.420077   0.000000
     4  O    2.976112   1.240786   2.177464   0.000000
 Stoichiometry    CHO2(1-)
 Framework group  C1[X(CHO2)]
 Deg. of freedom     6
 Full point group                 C1      NOp   1
 Largest Abelian subgroup         C1      NOp   1
 Largest concise Abelian subgroup C1      NOp   1
                         Standard orientation:                         
 ---------------------------------------------------------------------
 Center     Atomic      Atomic             Coordinates (Angstroms)
 Number     Number       Type             X           Y           Z
 ---------------------------------------------------------------------
      1          1           0        1.776253    0.372668   -0.002596
      2          6           0       -0.149361    0.538767    0.000360
      3          8           0        1.033511   -0.247001    0.000312
      4          8           0       -1.143522   -0.203658   -0.000257
 ---------------------------------------------------------------------
 Rotational constants (GHZ):          96.3175465          12.2097367          10.8360990
 Standard basis: 6-31+G(d,p) (6D, 7F)
 There are    62 symmetry adapted cartesian basis functions of A   symmetry.
 There are    62 symmetry adapted basis functions of A   symmetry.
    62 basis functions,   103 primitive gaussians,    62 cartesian basis functions
    12 alpha electrons       12 beta electrons
       nuclear repulsion energy        61.3533453939 Hartrees.
 NAtoms=    4 NActive=    4 NUniq=    4 SFac= 1.00D+00 NAtFMM=   60 NAOKFM=F Big=F
 Integral buffers will be    131072 words long.
 Raffenetti 2 integral format.
 Two-electron integral symmetry is turned on.
 ------------------------------------------------------------------------------
 Polarizable Continuum Model (PCM)
 =================================
 Model                : PCM.
 Atomic radii         : SMD-Coulomb.
 Polarization charges : Total charges.
 Charge compensation  : None.
 Solution method      : On-the-fly selection.
 Cavity type          : VdW (van der Waals Surface) (Alpha=1.000).
 Cavity algorithm     : GePol (No added spheres)
                        Default sphere list used, NSphG=    4.
                        Lebedev-Laikov grids with approx.  5.0 points / Ang**2.
                        Smoothing algorithm: York/Karplus (Gamma=1.0000).
                        Polarization charges: spherical gaussians, with
                                              point-specific exponents (IZeta= 3).
                        Self-potential: point-specific (ISelfS= 7).
                        Self-field    : sphere-specific E.n sum rule (ISelfD= 2).
 1st derivatives      : Analytical E(r).r(x)/FMM algorithm (CHGder, D1EAlg=3).
                        Cavity 1st derivative terms included.
 Solvent              : Water, Eps=  78.355300 Eps(inf)=   1.777849
 ------------------------------------------------------------------------------
 Spheres list:
 ISph  on   Nord     Re0    Alpha      Xe            Ye            Ze
    1   H      1    1.2000  1.000      1.776253      0.372668     -0.002596
    2   C      2    1.8500  1.000     -0.149361      0.538767      0.000360
    3   O      3    1.5200  1.000      1.033511     -0.247001      0.000312
    4   O      4    1.5200  1.000     -1.143522     -0.203658     -0.000257
 ------------------------------------------------------------------------------
 ------------------------------------------------------------------------------
 Atomic radii for non-electrostatic terms: SMD-CDS.
 ------------------------------------------------------------------------------
 Nuclear repulsion after PCM non-electrostatic terms =       61.3612610493 Hartrees.
 One-electron integrals computed using PRISM.
 NBasis=    62 RedAO= T EigKep=  4.52D-03  NBF=    62
 NBsUse=    62 1.00D-06 EigRej= -1.00D+00 NBFU=    62
 Lowest energy guess from the checkpoint file:  "/scratch/gongke2021/1-H-Tz-HCOO-/Gau-32669.chk"
 B after Tr=    -0.000000   -0.000000    0.000000
         Rot=    1.000000   -0.000001   -0.000000   -0.000569 Ang=  -0.07 deg.
 B after Tr=     0.000000   -0.000000    0.000000
         Rot=    1.000000   -0.000012   -0.000001    0.000575 Ang=  -0.07 deg.
 Keep R1 ints in memory in canonical form, NReq=19599261.
 Requested convergence on RMS density matrix=1.00D-08 within 128 cycles.
 Requested convergence on MAX density matrix=1.00D-06.
 Requested convergence on             energy=1.00D-06.
 No special actions if energy rises.
 Inv3:  Mode=1 IEnd=      562467.
 Iteration    1 A*A^-1 deviation from unit magnitude is 2.22D-15 for    430.
 Iteration    1 A*A^-1 deviation from orthogonality  is 1.41D-15 for    401     71.
 Iteration    1 A^-1*A deviation from unit magnitude is 2.22D-15 for     52.
 Iteration    1 A^-1*A deviation from orthogonality  is 8.78D-16 for    419    308.
 Error on total polarization charges =  0.06455
 SCF Done:  E(RM062X) =  -189.187966435     A.U. after   10 cycles
            NFock= 10  Conv=0.22D-08     -V/T= 2.0084
 SMD-CDS (non-electrostatic) energy       (kcal/mol) =       4.97
 (included in total energy above)
 D1PCM: PCM CHGder 1st derivatives, ID1Alg=3 FixD1E=F DoIter=F DoCFld=F I1PDM=0.
 Calling FoFJK, ICntrl=      2127 FMM=F ISym2X=0 I1Cent= 0 IOpClX= 0 NMat=1 NMatS=1 NMatT=0.
 ***** Axes restored to original set *****
 -------------------------------------------------------------------
 Center     Atomic                   Forces (Hartrees/Bohr)
 Number     Number              X              Y              Z
 -------------------------------------------------------------------
      1        1          -0.000264961   -0.000047235   -0.000066627
      2        6          -0.000038755   -0.000509888    0.000053193
      3        8          -0.000010932    0.000388333    0.000065223
      4        8           0.000314649    0.000168789   -0.000051788
 -------------------------------------------------------------------
 Cartesian Forces:  Max     0.000509888 RMS     0.000228499

 GradGradGradGradGradGradGradGradGradGradGradGradGradGradGradGradGradGrad
 Berny optimization.
 Using GEDIIS/GDIIS optimizer.
 FormGI is forming the generalized inverse of G from B-inverse, IUseBI=4.
 Internal  Forces:  Max     0.000349269 RMS     0.000207697
 Search for a local minimum.
 Step number   6 out of a maximum of   20
 All quantities printed in internal units (Hartrees-Bohrs-Radians)
 Mixed Optimization -- En-DIIS/RFO-DIIS
 Update second derivatives using D2CorX and points    1    2    3    5    4
                                                      6
 DE= -1.09D-05 DEPred=-5.22D-06 R= 2.09D+00
 TightC=F SS=  1.41D+00  RLast= 9.96D-03 DXNew= 4.2426D-01 2.9868D-02
 Trust test= 2.09D+00 RLast= 9.96D-03 DXMaxT set to 2.52D-01
 The second derivative matrix:
                          R1        R2        R3        A1        A2
           R1           0.53656
           R2           0.00190   0.29778
           R3           0.00742   0.18372   0.73566
           A1           0.02385   0.11392   0.12389   0.55409
           A2          -0.00154   0.04446   0.02547   0.05234   0.16499
           D1          -0.00171  -0.00414   0.00218   0.00049  -0.00249
                          D1
           D1           0.02311
 ITU=  1 -1  1  1  1  0
 Use linear search instead of GDIIS.
     Eigenvalues ---    0.02297   0.14845   0.22456   0.48996   0.54196
     Eigenvalues ---    0.88429
 RFO step:  Lambda=-3.31976147D-07 EMin= 2.29683430D-02
 Quartic linear search produced a step of  0.39366.
 Iteration  1 RMS(Cart)=  0.00135747 RMS(Int)=  0.00000122
 Iteration  2 RMS(Cart)=  0.00000086 RMS(Int)=  0.00000000
 Variable       Old X    -DE/DX   Delta X   Delta X   Delta X     New X
                                 (Linear)    (Quad)   (Total)
    R1        1.82793  -0.00017   0.00015  -0.00043  -0.00028   1.82765
    R2        2.68356   0.00035   0.00288   0.00055   0.00343   2.68698
    R3        2.34475  -0.00029  -0.00171   0.00028  -0.00143   2.34332
    A1        1.91380   0.00001  -0.00017  -0.00013  -0.00030   1.91350
    A2        1.85993   0.00010  -0.00132   0.00032  -0.00100   1.85893
    D1        3.13793   0.00012  -0.00153  -0.00066  -0.00219   3.13574
         Item               Value     Threshold  Converged?
 Maximum Force            0.000349     0.000450     YES
 RMS     Force            0.000208     0.000300     YES
 Maximum Displacement     0.001628     0.001800     YES
 RMS     Displacement     0.001357     0.001200     NO 
 Predicted change in Energy=-3.461148D-07
 GradGradGradGradGradGradGradGradGradGradGradGradGradGradGradGradGradGrad

                          Input orientation:                          
 ---------------------------------------------------------------------
 Center     Atomic      Atomic             Coordinates (Angstroms)
 Number     Number       Type             X           Y           Z
 ---------------------------------------------------------------------
      1          1           0       -1.176595    1.751532    0.001628
      2          6           0       -1.246632   -0.180771   -0.001240
      3          8           0       -1.882879    1.090828   -0.002034
      4          8           0       -2.104648   -1.076023    0.001023
 ---------------------------------------------------------------------
                    Distance matrix (angstroms):
                    1          2          3          4
     1  H    0.000000
     2  C    1.933574   0.000000
     3  O    0.967150   1.421891   0.000000
     4  O    2.975962   1.240030   2.178172   0.000000
 Stoichiometry    CHO2(1-)
 Framework group  C1[X(CHO2)]
 Deg. of freedom     6
 Full point group                 C1      NOp   1
 Largest Abelian subgroup         C1      NOp   1
 Largest concise Abelian subgroup C1      NOp   1
                         Standard orientation:                         
 ---------------------------------------------------------------------
 Center     Atomic      Atomic             Coordinates (Angstroms)
 Number     Number       Type             X           Y           Z
 ---------------------------------------------------------------------
      1          1           0        1.775906    0.373924   -0.004143
      2          6           0       -0.150605    0.538966    0.000575
      3          8           0        1.034357   -0.246933    0.000498
      4          8           0       -1.143392   -0.204032   -0.000411
 ---------------------------------------------------------------------
 Rotational constants (GHZ):          96.2195324          12.2018936          10.8286880
 Standard basis: 6-31+G(d,p) (6D, 7F)
 There are    62 symmetry adapted cartesian basis functions of A   symmetry.
 There are    62 symmetry adapted basis functions of A   symmetry.
    62 basis functions,   103 primitive gaussians,    62 cartesian basis functions
    12 alpha electrons       12 beta electrons
       nuclear repulsion energy        61.3380135120 Hartrees.
 NAtoms=    4 NActive=    4 NUniq=    4 SFac= 1.00D+00 NAtFMM=   60 NAOKFM=F Big=F
 Integral buffers will be    131072 words long.
 Raffenetti 2 integral format.
 Two-electron integral symmetry is turned on.
 ------------------------------------------------------------------------------
 Polarizable Continuum Model (PCM)
 =================================
 Model                : PCM.
 Atomic radii         : SMD-Coulomb.
 Polarization charges : Total charges.
 Charge compensation  : None.
 Solution method      : On-the-fly selection.
 Cavity type          : VdW (van der Waals Surface) (Alpha=1.000).
 Cavity algorithm     : GePol (No added spheres)
                        Default sphere list used, NSphG=    4.
                        Lebedev-Laikov grids with approx.  5.0 points / Ang**2.
                        Smoothing algorithm: York/Karplus (Gamma=1.0000).
                        Polarization charges: spherical gaussians, with
                                              point-specific exponents (IZeta= 3).
                        Self-potential: point-specific (ISelfS= 7).
                        Self-field    : sphere-specific E.n sum rule (ISelfD= 2).
 1st derivatives      : Analytical E(r).r(x)/FMM algorithm (CHGder, D1EAlg=3).
                        Cavity 1st derivative terms included.
 Solvent              : Water, Eps=  78.355300 Eps(inf)=   1.777849
 ------------------------------------------------------------------------------
 Spheres list:
 ISph  on   Nord     Re0    Alpha      Xe            Ye            Ze
    1   H      1    1.2000  1.000      1.775906      0.373924     -0.004143
    2   C      2    1.8500  1.000     -0.150605      0.538966      0.000575
    3   O      3    1.5200  1.000      1.034357     -0.246933      0.000498
    4   O      4    1.5200  1.000     -1.143392     -0.204032     -0.000411
 ------------------------------------------------------------------------------
 ------------------------------------------------------------------------------
 Atomic radii for non-electrostatic terms: SMD-CDS.
 ------------------------------------------------------------------------------
 Nuclear repulsion after PCM non-electrostatic terms =       61.3459329224 Hartrees.
 One-electron integrals computed using PRISM.
 NBasis=    62 RedAO= T EigKep=  4.52D-03  NBF=    62
 NBsUse=    62 1.00D-06 EigRej= -1.00D+00 NBFU=    62
 Initial guess from the checkpoint file:  "/scratch/gongke2021/1-H-Tz-HCOO-/Gau-32669.chk"
 B after Tr=     0.000000    0.000000   -0.000000
         Rot=    1.000000   -0.000001   -0.000000   -0.000241 Ang=  -0.03 deg.
 Keep R1 ints in memory in canonical form, NReq=19599261.
 Requested convergence on RMS density matrix=1.00D-08 within 128 cycles.
 Requested convergence on MAX density matrix=1.00D-06.
 Requested convergence on             energy=1.00D-06.
 No special actions if energy rises.
 Inv3:  Mode=1 IEnd=      562467.
 Iteration    1 A*A^-1 deviation from unit magnitude is 2.22D-15 for    355.
 Iteration    1 A*A^-1 deviation from orthogonality  is 1.55D-15 for    401     71.
 Iteration    1 A^-1*A deviation from unit magnitude is 2.22D-15 for    418.
 Iteration    1 A^-1*A deviation from orthogonality  is 8.77D-16 for    420    378.
 Error on total polarization charges =  0.06450
 SCF Done:  E(RM062X) =  -189.187965887     A.U. after    9 cycles
            NFock=  9  Conv=0.89D-08     -V/T= 2.0084
 SMD-CDS (non-electrostatic) energy       (kcal/mol) =       4.97
 (included in total energy above)
 D1PCM: PCM CHGder 1st derivatives, ID1Alg=3 FixD1E=F DoIter=F DoCFld=F I1PDM=0.
 Calling FoFJK, ICntrl=      2127 FMM=F ISym2X=0 I1Cent= 0 IOpClX= 0 NMat=1 NMatS=1 NMatT=0.
 ***** Axes restored to original set *****
 -------------------------------------------------------------------
 Center     Atomic                   Forces (Hartrees/Bohr)
 Number     Number              X              Y              Z
 -------------------------------------------------------------------
      1        1          -0.000178958    0.000087897   -0.000104958
      2        6           0.000071243    0.000320111    0.000083153
      3        8           0.000166597   -0.000176479    0.000103255
      4        8          -0.000058882   -0.000231528   -0.000081450
 -------------------------------------------------------------------
 Cartesian Forces:  Max     0.000320111 RMS     0.000157717

 GradGradGradGradGradGradGradGradGradGradGradGradGradGradGradGradGradGrad
 Berny optimization.
 Using GEDIIS/GDIIS optimizer.
 FormGI is forming the generalized inverse of G from B-inverse, IUseBI=4.
 Internal  Forces:  Max     0.000255652 RMS     0.000160129
 Search for a local minimum.
 Step number   7 out of a maximum of   20
 All quantities printed in internal units (Hartrees-Bohrs-Radians)
 Mixed Optimization -- En-DIIS/RFO-DIIS
 Swapping is turned off.
 Update second derivatives using D2CorX and points    1    2    3    5    4
                                                      6    7
 DE=  5.48D-07 DEPred=-3.46D-07 R=-1.58D+00
 Trust test=-1.58D+00 RLast= 4.44D-03 DXMaxT set to 1.26D-01
 The second derivative matrix:
                          R1        R2        R3        A1        A2
           R1           0.53396
           R2           0.00601   0.24272
           R3           0.01034   0.18566   0.76689
           A1           0.02219   0.10953   0.12181   0.55248
           A2           0.00661   0.03671   0.02871   0.05298   0.15429
           D1          -0.00132  -0.00167   0.00818   0.00187  -0.00373
                          D1
           D1           0.02451
 ITU= -1  1 -1  1  1  1  0
     Eigenvalues ---    0.02422   0.13714   0.17961   0.49582   0.53962
     Eigenvalues ---    0.89845
 En-DIIS/RFO-DIIS/Sim-DIIS IScMMF=       -3 using points:     7    6
 RFO step:  Lambda=-1.92135304D-06.
 DidBck=T Rises=T En-DIIS coefs:    0.40103    0.59897
 Iteration  1 RMS(Cart)=  0.00304253 RMS(Int)=  0.00000856
 Iteration  2 RMS(Cart)=  0.00000691 RMS(Int)=  0.00000000
 Iteration  3 RMS(Cart)=  0.00000000 RMS(Int)=  0.00000000
 Variable       Old X    -DE/DX   Delta X   Delta X   Delta X     New X
                                 (Linear)    (Quad)   (Total)
    R1        1.82765  -0.00002   0.00017  -0.00020  -0.00003   1.82761
    R2        2.68698  -0.00015  -0.00205   0.00088  -0.00117   2.68581
    R3        2.34332   0.00026   0.00086  -0.00038   0.00048   2.34379
    A1        1.91350   0.00003   0.00018  -0.00016   0.00002   1.91352
    A2        1.85893   0.00018   0.00060   0.00091   0.00150   1.86044
    D1        3.13574   0.00018   0.00131   0.00612   0.00743  -3.14001
         Item               Value     Threshold  Converged?
 Maximum Force            0.000256     0.000450     YES
 RMS     Force            0.000160     0.000300     YES
 Maximum Displacement     0.004012     0.001800     NO 
 RMS     Displacement     0.003042     0.001200     NO 
 Predicted change in Energy=-9.607105D-07
 GradGradGradGradGradGradGradGradGradGradGradGradGradGradGradGradGradGrad

                          Input orientation:                          
 ---------------------------------------------------------------------
 Center     Atomic      Atomic             Coordinates (Angstroms)
 Number     Number       Type             X           Y           Z
 ---------------------------------------------------------------------
      1          1           0       -1.176913    1.752014   -0.000495
      2          6           0       -1.246590   -0.180773    0.000527
      3          8           0       -1.882320    1.090392    0.000007
      4          8           0       -2.104931   -1.076067   -0.000662
 ---------------------------------------------------------------------
                    Distance matrix (angstroms):
                    1          2          3          4
     1  H    0.000000
     2  C    1.934043   0.000000
     3  O    0.967132   1.421272   0.000000
     4  O    2.976451   1.240283   2.177866   0.000000
 Stoichiometry    CHO2(1-)
 Framework group  C1[X(CHO2)]
 Deg. of freedom     6
 Full point group                 C1      NOp   1
 Largest Abelian subgroup         C1      NOp   1
 Largest concise Abelian subgroup C1      NOp   1
                         Standard orientation:                         
 ---------------------------------------------------------------------
 Center     Atomic      Atomic             Coordinates (Angstroms)
 Number     Number       Type             X           Y           Z
 ---------------------------------------------------------------------
      1          1           0        1.776633    0.372728    0.001119
      2          6           0       -0.150253    0.538958   -0.000155
      3          8           0        1.034027   -0.246851   -0.000134
      4          8           0       -1.143416   -0.203959    0.000111
 ---------------------------------------------------------------------
 Rotational constants (GHZ):          96.2572827          12.2045075          10.8312137
 Standard basis: 6-31+G(d,p) (6D, 7F)
 There are    62 symmetry adapted cartesian basis functions of A   symmetry.
 There are    62 symmetry adapted basis functions of A   symmetry.
    62 basis functions,   103 primitive gaussians,    62 cartesian basis functions
    12 alpha electrons       12 beta electrons
       nuclear repulsion energy        61.3432541795 Hartrees.
 NAtoms=    4 NActive=    4 NUniq=    4 SFac= 1.00D+00 NAtFMM=   60 NAOKFM=F Big=F
 Integral buffers will be    131072 words long.
 Raffenetti 2 integral format.
 Two-electron integral symmetry is turned on.
 ------------------------------------------------------------------------------
 Polarizable Continuum Model (PCM)
 =================================
 Model                : PCM.
 Atomic radii         : SMD-Coulomb.
 Polarization charges : Total charges.
 Charge compensation  : None.
 Solution method      : On-the-fly selection.
[...]
          There are    15 degrees of freedom in the 1st order CPHF.  IDoFFX=6 NUNeed=     3.
     12 vectors produced by pass  0 Test12= 4.00D-15 6.67D-09 XBig12= 1.93D+01 2.73D+00.
 AX will form    12 AO Fock derivatives at one time.
     12 vectors produced by pass  1 Test12= 4.00D-15 6.67D-09 XBig12= 2.84D+00 4.23D-01.
     12 vectors produced by pass  2 Test12= 4.00D-15 6.67D-09 XBig12= 9.48D-02 9.07D-02.
     12 vectors produced by pass  3 Test12= 4.00D-15 6.67D-09 XBig12= 2.98D-03 1.45D-02.
     12 vectors produced by pass  4 Test12= 4.00D-15 6.67D-09 XBig12= 1.93D-05 1.42D-03.
     12 vectors produced by pass  5 Test12= 4.00D-15 6.67D-09 XBig12= 1.03D-07 6.32D-05.
     12 vectors produced by pass  6 Test12= 4.00D-15 6.67D-09 XBig12= 4.79D-10 4.43D-06.
      3 vectors produced by pass  7 Test12= 4.00D-15 6.67D-09 XBig12= 1.88D-12 2.89D-07.
      1 vectors produced by pass  8 Test12= 4.00D-15 6.67D-09 XBig12= 7.17D-15 1.91D-08.
 InvSVY:  IOpt=1 It=  1 EMax= 1.55D-15
 Solved reduced A of dimension    88 with    12 vectors.
 Isotropic polarizability for W=    0.000000       39.95 Bohr**3.
 End of Minotr F.D. properties file   721 does not exist.
 End of Minotr F.D. properties file   722 does not exist.
 End of Minotr F.D. properties file   788 does not exist.

 **********************************************************************

            Population analysis using the SCF density.

 **********************************************************************

 Orbital symmetries:
       Occupied  (A) (A) (A) (A) (A) (A) (A) (A) (A) (A) (A) (A)
       Virtual   (A) (A) (A) (A) (A) (A) (A) (A) (A) (A) (A) (A)
                 (A) (A) (A) (A) (A) (A) (A) (A) (A) (A) (A) (A)
                 (A) (A) (A) (A) (A) (A) (A) (A) (A) (A) (A) (A)
                 (A) (A) (A) (A) (A) (A) (A) (A) (A) (A) (A) (A)
                 (A) (A)
 The electronic state is 1-A.
 Alpha  occ. eigenvalues --  -19.64496 -19.60860 -10.60387  -1.16770  -1.08405
 Alpha  occ. eigenvalues --   -0.64302  -0.53259  -0.48912  -0.46646  -0.39043
 Alpha  occ. eigenvalues --   -0.36204  -0.23887
 Alpha virt. eigenvalues --    0.05559   0.05914   0.06121   0.08361   0.11056
 Alpha virt. eigenvalues --    0.18535   0.19793   0.22672   0.22913   0.25939
 Alpha virt. eigenvalues --    0.26670   0.28986   0.30535   0.34891   0.38699
 Alpha virt. eigenvalues --    0.48914   0.72072   0.73450   0.84181   1.04871
 Alpha virt. eigenvalues --    1.13035   1.17562   1.23538   1.25638   1.29157
 Alpha virt. eigenvalues --    1.29403   1.38728   1.48859   1.54694   1.56719
 Alpha virt. eigenvalues --    1.58486   1.61372   1.71877   1.86376   1.91002
 Alpha virt. eigenvalues --    1.97708   2.16030   2.37652   2.41856   2.50784
 Alpha virt. eigenvalues --    2.51851   2.60151   2.72706   2.86973   2.98161
 Alpha virt. eigenvalues --    3.16519   3.50586   4.11505   4.21231   4.36919
          Condensed to atoms (all electrons):
               1          2          3          4
     1  H    0.339480  -0.021596   0.254301   0.011126
     2  C   -0.021596   5.787254  -0.067918   0.365445
     3  O    0.254301  -0.067918   8.597921  -0.163432
     4  O    0.011126   0.365445  -0.163432   8.519493
 Mulliken charges:
               1
     1  H    0.416689
     2  C   -0.063185
     3  O   -0.620872
     4  O   -0.732632
 Sum of Mulliken charges =  -1.00000
 Mulliken charges with hydrogens summed into heavy atoms:
               1
     2  C   -0.063185
     3  O   -0.204183
     4  O   -0.732632
 APT charges:
               1
     1  H    0.382152
     2  C    1.023669
     3  O   -1.177117
     4  O   -1.228704
 Sum of APT charges =  -1.00000
 APT charges with hydrogens summed into heavy atoms:
               1
     2  C    1.023669
     3  O   -0.794964
     4  O   -1.228704
 Electronic spatial extent (au):  <R**2>=            138.9294
 Charge=             -1.0000 electrons
 Dipole moment (field-independent basis, Debye):
    X=              3.9767    Y=              0.2218    Z=              0.0028  Tot=              3.9829
 Quadrupole moment (field-independent basis, Debye-Ang):
   XX=            -21.6880   YY=            -24.9067   ZZ=            -20.1571
   XY=              1.8921   XZ=              0.0058   YZ=              0.0023
 Traceless Quadrupole moment (field-independent basis, Debye-Ang):
   XX=              0.5626   YY=             -2.6561   ZZ=              2.0935
   XY=              1.8921   XZ=              0.0058   YZ=              0.0023
 Octapole moment (field-independent basis, Debye-Ang**2):
  XXX=             17.7554  YYY=            -10.6893  ZZZ=              0.0030  XYY=              1.5686
  XXY=              3.3346  XXZ=              0.0106  XZZ=              0.5989  YZZ=             -1.9406
  YYZ=              0.0022  XYZ=              0.0018
 Hexadecapole moment (field-independent basis, Debye-Ang**3):
 XXXX=           -110.8652 YYYY=            -62.1050 ZZZZ=            -24.8571 XXXY=              6.9911
 XXXZ=              0.0204 YYYX=              1.7464 YYYZ=              0.0046 ZZZX=              0.0032
 ZZZY=              0.0030 XXYY=            -28.9407 XXZZ=            -25.1273 YYZZ=            -13.6733
 XXYZ=              0.0042 YYXZ=              0.0015 ZZXY=              0.5480
 N-N= 6.135117340305D+01 E-N=-5.743502390802D+02  KE= 1.876135007387D+02
  Exact polarizability:  48.204   3.185  39.985   0.001  -0.002  31.664
 Approx polarizability:  38.384   2.824  28.745   0.000  -0.000  24.715
 D2PCM: PCM CHGder 2nd derivatives, FixD1E=F FixD2E=F DoIter=F DoCFld=F I1PDM=0
 Calling FoFJK, ICntrl=    100127 FMM=F ISym2X=0 I1Cent= 0 IOpClX= 0 NMat=1 NMatS=1 NMatT=0.
 Full mass-weighted force constant matrix:
 Low frequencies ---  -84.2575  -66.3361  -43.6629    0.0022    0.0023    0.0024
 Low frequencies ---  555.8927  651.3007  840.3671
 Diagonal vibrational polarizability:
       35.7521845       4.6420231      16.1264579
 Harmonic frequencies (cm**-1), IR intensities (KM/Mole), Raman scattering
 activities (A**4/AMU), depolarization ratios for plane and unpolarized
 incident light, reduced masses (AMU), force constants (mDyne/A),
 and normal coordinates:
                      1                      2                      3
                      A                      A                      A
 Frequencies --    555.8746               651.3005               840.3649
 Red. masses --      1.1524                 7.7827                 7.4194
 Frc consts  --      0.2098                 1.9451                 3.0871
 IR Inten    --    185.1693                87.0830               526.1713
  Atom  AN      X      Y      Z        X      Y      Z        X      Y      Z
     1   1    -0.00   0.00   0.99    -0.13   0.71  -0.01    -0.47   0.49   0.00
     2   6    -0.00  -0.00  -0.07    -0.11  -0.27   0.00     0.48  -0.43  -0.00
     3   8     0.00  -0.00  -0.06     0.47  -0.01   0.00    -0.24   0.23  -0.00
     4   8    -0.00   0.00   0.05    -0.38   0.16  -0.00    -0.09   0.07   0.00
                      4                      5                      6
                      A                      A                      A
 Frequencies --   1163.0639              1584.6472              3854.2738
 Red. masses --      1.2770                 9.3968                 1.0668
 Frc consts  --      1.0178                13.9026                 9.3375
 IR Inten    --    433.5094               552.1901               152.7374
  Atom  AN      X      Y      Z        X      Y      Z        X      Y      Z
     1   1    -0.68   0.72  -0.00    -0.36   0.43   0.00     0.77   0.64   0.00
     2   6    -0.04   0.02   0.00     0.44   0.50  -0.00    -0.00  -0.00   0.00
     3   8    -0.02  -0.09  -0.00     0.05  -0.10  -0.00    -0.05  -0.04  -0.00
     4   8     0.09   0.03  -0.00    -0.36  -0.30   0.00     0.00   0.00  -0.00

 -------------------
 - Thermochemistry -
 -------------------
 Temperature   298.150 Kelvin.  Pressure   1.00000 Atm.
 Atom     1 has atomic number  1 and mass   1.00783
 Atom     2 has atomic number  6 and mass  12.00000
 Atom     3 has atomic number  8 and mass  15.99491
 Atom     4 has atomic number  8 and mass  15.99491
 Molecular mass:    44.99765 amu.
 Principal axes and moments of inertia in atomic units:
                           1         2         3
     Eigenvalues --    18.74914 147.87497 166.62410
           X            0.99983   0.01857   0.00005
           Y           -0.01857   0.99983   0.00009
           Z           -0.00005  -0.00009   1.00000
 This molecule is an asymmetric top.
 Rotational symmetry number  1.
 Rotational temperatures (Kelvin)      4.61962     0.58572     0.51982
 Rotational constants (GHZ):          96.25728    12.20451    10.83121
 Zero-point vibrational energy      51735.6 (Joules/Mol)
                                   12.36512 (Kcal/Mol)
 Warning -- explicit consideration of   1 degrees of freedom as
           vibrations may cause significant error
 Vibrational temperatures:    799.78   937.08  1209.10  1673.39  2279.95
          (Kelvin)           5545.44
 
 Zero-point correction=                           0.019705 (Hartree/Particle)
 Thermal correction to Energy=                    0.022948
 Thermal correction to Enthalpy=                  0.023892
 Thermal correction to Gibbs Free Energy=        -0.004252
 Sum of electronic and zero-point Energies=           -189.168262
 Sum of electronic and thermal Energies=              -189.165019
 Sum of electronic and thermal Enthalpies=            -189.164075
 Sum of electronic and thermal Free Energies=         -189.192219
 
                     E (Thermal)             CV                S
                      KCal/Mol        Cal/Mol-Kelvin    Cal/Mol-Kelvin
 Total                   14.400              8.886             59.235
 Electronic               0.000              0.000              0.000
 Translational            0.889              2.981             37.338
 Rotational               0.889              2.981             20.763
 Vibrational             12.623              2.924              1.135
 Vibration     1          0.911              1.127              0.532
                       Q            Log10(Q)             Ln(Q)
 Total Bot       0.903673D+02          1.956011          4.503883
 Total V=0       0.104642D+12         11.019705         25.373809
 Vib (Bot)       0.989966D-09         -9.004380        -20.733351
 Vib (Bot)    1  0.280722D+00         -0.551724         -1.270392
 Vib (V=0)       0.114634D+01          0.059314          0.136576
 Vib (V=0)    1  0.107341D+01          0.030768          0.070845
 Electronic      0.100000D+01          0.000000          0.000000
 Translational   0.118642D+08          7.074239         16.289037
 Rotational      0.769401D+04          3.886153          8.948197
 ***** Axes restored to original set *****
 -------------------------------------------------------------------
 Center     Atomic                   Forces (Hartrees/Bohr)
 Number     Number              X              Y              Z
 -------------------------------------------------------------------
      1        1          -0.000100288    0.000013984    0.000028323
      2        6           0.000081980    0.000096928   -0.000022602
      3        8          -0.000046654   -0.000018973   -0.000027907
      4        8           0.000064962   -0.000091940    0.000022186
 -------------------------------------------------------------------
 Cartesian Forces:  Max     0.000100288 RMS     0.000060665
 FormGI is forming the generalized inverse of G from B-inverse, IUseBI=4.

 GradGradGradGradGradGradGradGradGradGradGradGradGradGradGradGradGradGrad
 Berny optimization.
 Internal  Forces:  Max     0.000069880 RMS     0.000037614
 Search for a local minimum.
 Step number   1 out of a maximum of    2
 All quantities printed in internal units (Hartrees-Bohrs-Radians)
 Second derivative matrix not updated -- analytic derivatives used.
 The second derivative matrix:
                          R1        R2        R3        A1        A2
           R1           0.53351
           R2           0.00162   0.21408
           R3          -0.00150   0.13092   0.66867
           A1           0.01538   0.08763   0.09354   0.48970
           A2           0.00913   0.03160   0.01121   0.04649   0.15110
           D1          -0.00000  -0.00007   0.00002  -0.00004   0.00001
                          D1
           D1           0.03071
 ITU=  0
     Eigenvalues ---    0.03071   0.13344   0.17705   0.45428   0.53649
     Eigenvalues ---    0.75579
 Angle between quadratic step and forces=  50.52 degrees.
 Linear search not attempted -- first point.
 Iteration  1 RMS(Cart)=  0.00064785 RMS(Int)=  0.00000038
 Iteration  2 RMS(Cart)=  0.00000030 RMS(Int)=  0.00000000
 Variable       Old X    -DE/DX   Delta X   Delta X   Delta X     New X
                                 (Linear)    (Quad)   (Total)
    R1        1.82761  -0.00001   0.00000  -0.00002  -0.00002   1.82759
    R2        2.68581  -0.00002   0.00000  -0.00015  -0.00015   2.68566
    R3        2.34379   0.00007   0.00000   0.00013   0.00013   2.34392
    A1        1.91352   0.00001   0.00000   0.00005   0.00005   1.91357
    A2        1.86044  -0.00002   0.00000  -0.00014  -0.00014   1.86029
    D1       -3.14001  -0.00005   0.00000  -0.00161  -0.00161   3.14156
         Item               Value     Threshold  Converged?
 Maximum Force            0.000070     0.000450     YES
 RMS     Force            0.000038     0.000300     YES
 Maximum Displacement     0.000869     0.001800     YES
 RMS     Displacement     0.000648     0.001200     YES
 Predicted change in Energy=-4.773756D-08
 Optimization completed.
    -- Stationary point found.
                           ----------------------------
                           !   Optimized Parameters   !
                           ! (Angstroms and Degrees)  !
 --------------------------                            --------------------------
 ! Name  Definition              Value          Derivative Info.                !
 --------------------------------------------------------------------------------
 ! R1    R(1,3)                  0.9671         -DE/DX =    0.0                 !
 ! R2    R(2,3)                  1.4213         -DE/DX =    0.0                 !
 ! R3    R(2,4)                  1.2403         -DE/DX =    0.0001              !
 ! A1    A(3,2,4)              109.6368         -DE/DX =    0.0                 !
 ! A2    A(1,3,2)              106.5951         -DE/DX =    0.0                 !
 ! D1    D(4,2,3,1)            180.0906         -DE/DX =    0.0                 !
 --------------------------------------------------------------------------------
 GradGradGradGradGradGradGradGradGradGradGradGradGradGradGradGradGradGrad


 ----------------------------------------------------------------------

 Electric dipole moment (input orientation):
 (Debye = 10**-18 statcoulomb cm , SI units = C m)
                  (au)            (Debye)         (10**-30 SI)
   Tot        0.156698D+01      0.398286D+01      0.132854D+02
   x          0.277160D+00      0.704471D+00      0.234986D+01
   y          0.154227D+01      0.392006D+01      0.130759D+02
   z         -0.675620D-03     -0.171725D-02     -0.572814D-02

 Dipole polarizability, Alpha (input orientation).
 (esu units = cm**3 , SI units = C**2 m**2 J**-1)
 Alpha(0;0):
               (au)            (10**-24 esu)      (10**-40 SI)
   iso        0.399511D+02      0.592014D+01      0.658705D+01
   aniso      0.153494D+02      0.227455D+01      0.253078D+01
   xx         0.408771D+02      0.605736D+01      0.673972D+01
   yx         0.408373D+01      0.605146D+00      0.673315D+00
   yy         0.473121D+02      0.701093D+01      0.780071D+01
   zx         0.110854D-01      0.164269D-02      0.182774D-02
   zy         0.418685D-02      0.620428D-03      0.690319D-03
   zz         0.316641D+02      0.469214D+01      0.522071D+01

 ----------------------------------------------------------------------

 Dipole orientation:
     1         -2.73088909          0.49046187          2.86524559
     6         -2.22266329          0.39875143         -0.75289528
     8         -3.80460941          0.68309737          1.39889342
     8         -3.49886992          0.63123485         -2.70497635

 Electric dipole moment (dipole orientation):
 (Debye = 10**-18 statcoulomb cm , SI units = C m)
                  (au)            (Debye)         (10**-30 SI)
   Tot        0.156698D+01      0.398286D+01      0.132854D+02
   x          0.000000D+00      0.000000D+00      0.000000D+00
   y          0.000000D+00      0.000000D+00      0.000000D+00
   z          0.156698D+01      0.398286D+01      0.132854D+02

 Dipole polarizability, Alpha (dipole orientation).
 (esu units = cm**3 , SI units = C**2 m**2 J**-1)
 Alpha(0;0):
               (au)            (10**-24 esu)      (10**-40 SI)
   iso        0.399511D+02      0.592014D+01      0.658705D+01
   aniso      0.153494D+02      0.227455D+01      0.253078D+01
   xx         0.394026D+02      0.583886D+01      0.649661D+01
   yx        -0.140201D+01     -0.207757D+00     -0.231161D+00
   yy         0.319181D+02      0.472977D+01      0.526258D+01
   zx         0.266290D+01      0.394601D+00      0.439052D+00
   zy        -0.492116D+00     -0.729241D-01     -0.811390D-01
   zz         0.485326D+02      0.719179D+01      0.800194D+01

 ----------------------------------------------------------------------
 1\1\GINC-NODE2\Freq\RM062X\6-31+G(d,p)\C1H1O2(1-)\GONGKE2021\23-Jul-20
 23\0\\#N Geom=AllCheck Guess=TCheck SCRF=Check GenChk RM062X/6-31+G(d,
 p) Freq\\"Sketch 2"\\-1,1\H,-1.1769130765,1.7520138053,-0.000495251\C,
 -1.2465899129,-0.1807734082,0.0005268997\O,-1.8823203237,1.0903916201,
 0.0000070343\O,-2.1049306869,-1.0760670172,-0.000661683\\Version=ES64L
 -G16RevA.03\State=1-A\HF=-189.187967\RMSD=2.450e-10\RMSF=6.066e-05\Zer
 oPoint=0.0197051\Thermal=0.0229478\Dipole=0.2771604,1.5422705,-0.00067
 56\DipoleDeriv=0.2808812,-0.0233025,0.0000121,0.0053353,0.4419727,-0.0
 001686,0.0000474,0.0002105,0.4236028,0.9425385,0.3669488,0.0018277,0.1
 54665,2.6916817,0.0009155,0.0019147,0.0009158,-0.5632142,-0.8085329,0.
 9908258,-0.0004985,0.2301668,-2.2662964,-0.0000194,-0.0007015,0.000584
 4,-0.4565207,-1.4148868,-1.334472,-0.0013413,-0.3901672,-1.867358,-0.0
 007275,-0.0012606,-0.0017106,-0.4038679\Polar=40.8770998,4.0837259,47.
 3120772,0.0110854,0.0041869,31.6641027\Quadrupole=-1.5991637,0.0426971
 ,1.5564666,1.6543088,-0.0051582,-0.0026141\PG=C01 [X(C1H1O2)]\NImag=0\
 \0.30035008,0.24379325,0.27879763,-0.00016352,-0.00019622,0.01019046,0
 .01182664,-0.03214995,0.00002177,0.53432666,0.01373594,-0.01727849,-0.
 00003283,0.20382304,0.36455256,-0.00001821,-0.00002210,-0.00833165,0.0
 0062204,0.00032010,0.00531433,-0.31449886,-0.21809277,0.00014451,-0.16
 000559,0.02962461,-0.00011711,0.41586273,-0.26284312,-0.25053408,0.000
 22510,0.09203573,-0.06323186,0.00008192,0.21861697,0.44942310,0.000174
 38,0.00020461,-0.01003943,-0.00015873,0.00008176,0.00883141,-0.0000749
 4,-0.00024398,0.00899865,0.00232214,0.00644947,-0.00000275,-0.38614772
 ,-0.24718360,-0.00048671,0.05864172,-0.04780958,0.00005929,0.32518385,
 0.00531393,-0.01098506,0.00000395,-0.26370882,-0.28404222,-0.00037993,
 -0.03014881,-0.13565717,-0.00004239,0.28854370,0.43068445,0.00000736,0
 .00001370,0.00818062,-0.00048507,-0.00036903,-0.00581409,0.00004754,-0
 .00006304,-0.00779063,0.00043018,0.00041837,0.00542411\\0.00010029,-0.
 00001398,-0.00002832,-0.00008198,-0.00009693,0.00002260,0.00004665,0.0
 0001897,0.00002791,-0.00006496,0.00009194,-0.00002219\\\@


 A SLIP OF THE FOOT YOU MAY SOON RECOVER, BUT A SLIP OF THE TONGUE
 YOU MAY NEVER GET OVER. -- BEN FRANKLIN
 Job cpu time:       0 days  0 hours  3 minutes  8.7 seconds.
 Elapsed time:       0 days  0 hours  0 minutes  9.5 seconds.
 File lengths (MBytes):  RWF=     10 Int=      0 D2E=      0 Chk=      3 Scr=      1
 Normal termination of Gaussian 16 at Sun Jul 23 01:16:30 2023.
