 Entering Gaussian System, Link 0=/opt/soft/g16/g16
 Initial command:
 /opt/soft/g16/l1.exe "/scratch/gongke2021/1-H-Tz-RC/Gau-1065.inp" -scrdir="/scratch/gongke2021/1-H-Tz-RC/"
 Entering Link 1 = /opt/soft/g16/l1.exe PID=      1066.
  
 Copyright (c) 1988,1990,1992,1993,1995,1998,2003,2009,2016,
            Gaussian, Inc.  All Rights Reserved.
  
 This is part of the Gaussian(R) 16 program.  It is based on
 the Gaussian(R) 09 system (copyright 2009, Gaussian, Inc.),
 the Gaussian(R) 03 system (copyright 2003, Gaussian, Inc.),
 the Gaussian(R) 98 system (copyright 1998, Gaussian, Inc.),
 the Gaussian(R) 94 system (copyright 1995, Gaussian, Inc.),
 the Gaussian 92(TM) system (copyright 1992, Gaussian, Inc.),
 the Gaussian 90(TM) system (copyright 1990, Gaussian, Inc.),
 the Gaussian 88(TM) system (copyright 1988, Gaussian, Inc.),
 the Gaussian 86(TM) system (copyright 1986, Carnegie Mellon
 University), and the Gaussian 82(TM) system (copyright 1983,
 Carnegie Mellon University). Gaussian is a federally registered
 trademark of Gaussian, Inc.
  
 This software contains proprietary and confidential information,
 including trade secrets, belonging to Gaussian, Inc.
  
 This software is provided under written license and may be
 used, copied, transmitted, or stored only in accord with that
 written license.
  
 The following legend is applicable only to US Government
 contracts under FAR:
  
                    RESTRICTED RIGHTS LEGEND
  
 Use, reproduction and disclosure by the US Government is
 subject to restrictions as set forth in subparagraphs (a)
 and (c) of the Commercial Computer Software - Restricted
 Rights clause in FAR 52.227-19.
  
 Gaussian, Inc.
 340 Quinnipiac St., Bldg. 40, Wallingford CT 06492
  
  
 ---------------------------------------------------------------
 Warning -- This program may not be used in any manner that
 competes with the business of Gaussian, Inc. or will provide
 assistance to any competitor of Gaussian, Inc.  The licensee
 of this program is prohibited from giving any competitor of
 Gaussian, Inc. access to this program.  By using this program,
 the user acknowledges that Gaussian, Inc. is engaged in the
 business of creating and licensing software in the field of
 computational chemistry and represents and warrants to the
 licensee that it is not a competitor of Gaussian, Inc. and that
 it will not use this program in any manner prohibited above.
 ---------------------------------------------------------------
  

 Cite this work as:
 Gaussian 16, Revision A.03,
 M. J. Frisch, G. W. Trucks, H. B. Schlegel, G. E. Scuseria, 
 M. A. Robb, J. R. Cheeseman, G. Scalmani, V. Barone, 
 G. A. Petersson, H. Nakatsuji, X. Li, M. Caricato, A. V. Marenich, 
 J. Bloino, B. G. Janesko, R. Gomperts, B. Mennucci, H. P. Hratchian, 
 J. V. Ortiz, A. F. Izmaylov, J. L. Sonnenberg, D. Williams-Young, 
 F. Ding, F. Lipparini, F. Egidi, J. Goings, B. Peng, A. Petrone, 
 T. Henderson, D. Ranasinghe, V. G. Zakrzewski, J. Gao, N. Rega, 
 G. Zheng, W. Liang, M. Hada, M. Ehara, K. Toyota, R. Fukuda, 
 J. Hasegawa, M. Ishida, T. Nakajima, Y. Honda, O. Kitao, H. Nakai, 
 T. Vreven, K. Throssell, J. A. Montgomery, Jr., J. E. Peralta, 
 F. Ogliaro, M. J. Bearpark, J. J. Heyd, E. N. Brothers, K. N. Kudin, 
 V. N. Staroverov, T. A. Keith, R. Kobayashi, J. Normand, 
 K. Raghavachari, A. P. Rendell, J. C. Burant, S. S. Iyengar, 
 J. Tomasi, M. Cossi, J. M. Millam, M. Klene, C. Adamo, R. Cammi, 
 J. W. Ochterski, R. L. Martin, K. Morokuma, O. Farkas, 
 J. B. Foresman, and D. J. Fox, Gaussian, Inc., Wallingford CT, 2016.
 
 ******************************************
 Gaussian 16:  ES64L-G16RevA.03 25-Dec-2016
                13-Nov-2023 
 ******************************************
 %mem=10GB
 %nprocshared=24
 Will use up to   24 processors via shared memory.
 -----------------------------------------------------
 # opt freq 6-31+g(d,p) m062x scrf=(SMD,solvent=water)
 -----------------------------------------------------
 1/18=20,19=15,26=3,38=1/1,3;
 2/9=110,12=2,17=6,18=5,40=1/2;
 3/5=1,6=6,7=111,11=2,25=1,30=1,70=32201,71=1,72=1,74=-55/1,2,3;
 4//1;
 5/5=2,38=5,53=1/2;
 6/7=2,8=2,9=2,10=2,28=1/1;
 7//1,2,3,16;
 1/18=20,19=15,26=3/3(2);
 2/9=110/2;
 99//99;
 2/9=110/2;
 3/5=1,6=6,7=111,11=2,25=1,30=1,70=32205,71=1,72=1,74=-55/1,2,3;
 4/5=5,16=3,69=1/1;
 5/5=2,38=5,53=1/2;
 7//1,2,3,16;
 1/18=20,19=15,26=3/3(-5);
 2/9=110/2;
 6/7=2,8=2,9=2,10=2,19=2,28=1/1;
 99/9=1/99;
 -------------------
 Title Card Required
 -------------------
 Symbolic Z-matrix:
 Charge =  0 Multiplicity = 2
 N                    -0.01093  -0.01133   0.09712 
 N                     0.80454   1.0892    0.03032 
 C                     2.09163   0.61326  -0.03982 
 C                     1.98782  -0.75832  -0.03672 
 N                     0.70259  -1.17295   0.03529 
 H                     2.94161   1.2724   -0.08535 
 H                     2.78654  -1.48215  -0.08475 
 H                     0.38813   2.00854   0.04753 
 C                    -1.88055   0.16467   0.05664 
 O                    -2.50661  -1.01296   0.0307 
 O                    -2.41727   1.24913   0.0227 
 H                    -1.8507   -1.73194   0.03873 
 
 Add virtual bond connecting atoms C9         and N1         Dist= 3.55D+00.

 GradGradGradGradGradGradGradGradGradGradGradGradGradGradGradGradGradGrad
 Berny optimization.
 Initialization pass.
                           ----------------------------
                           !    Initial Parameters    !
                           ! (Angstroms and Degrees)  !
 --------------------------                            --------------------------
 ! Name  Definition              Value          Derivative Info.                !
 --------------------------------------------------------------------------------
 ! R1    R(1,2)                  1.3714         estimate D2E/DX2                !
 ! R2    R(1,5)                  1.3647         estimate D2E/DX2                !
 ! R3    R(1,9)                  1.8783         estimate D2E/DX2                !
 ! R4    R(2,3)                  1.3741         estimate D2E/DX2                !
 ! R5    R(2,8)                  1.0094         estimate D2E/DX2                !
 ! R6    R(3,4)                  1.3755         estimate D2E/DX2                !
 ! R7    R(3,6)                  1.0766         estimate D2E/DX2                !
 ! R8    R(4,5)                  1.3524         estimate D2E/DX2                !
 ! R9    R(4,7)                  1.079          estimate D2E/DX2                !
 ! R10   R(9,10)                 1.334          estimate D2E/DX2                !
 ! R11   R(9,11)                 1.2105         estimate D2E/DX2                !
 ! R12   R(10,12)                0.9732         estimate D2E/DX2                !
 ! A1    A(2,1,5)              111.715          estimate D2E/DX2                !
 ! A2    A(2,1,9)              121.0407         estimate D2E/DX2                !
 ! A3    A(5,1,9)              126.8137         estimate D2E/DX2                !
 ! A4    A(1,2,3)              106.3512         estimate D2E/DX2                !
 ! A5    A(1,2,8)              118.9975         estimate D2E/DX2                !
 ! A6    A(3,2,8)              134.6493         estimate D2E/DX2                !
 ! A7    A(2,3,4)              105.937          estimate D2E/DX2                !
 ! A8    A(2,3,6)              121.9815         estimate D2E/DX2                !
 ! A9    A(4,3,6)              132.0815         estimate D2E/DX2                !
 ! A10   A(3,4,5)              112.1825         estimate D2E/DX2                !
 ! A11   A(3,4,7)              127.8045         estimate D2E/DX2                !
 ! A12   A(5,4,7)              120.013          estimate D2E/DX2                !
 ! A13   A(1,5,4)              103.7881         estimate D2E/DX2                !
 ! A14   A(1,9,10)             112.6343         estimate D2E/DX2                !
 ! A15   A(1,9,11)             121.7275         estimate D2E/DX2                !
 ! A16   A(10,9,11)            125.6103         estimate D2E/DX2                !
 ! A17   A(9,10,12)            109.6165         estimate D2E/DX2                !
 ! D1    D(5,1,2,3)             -1.681          estimate D2E/DX2                !
 ! D2    D(5,1,2,8)            178.7549         estimate D2E/DX2                !
 ! D3    D(9,1,2,3)           -174.6417         estimate D2E/DX2                !
 ! D4    D(9,1,2,8)              5.7941         estimate D2E/DX2                !
 ! D5    D(2,1,5,4)              1.5377         estimate D2E/DX2                !
 ! D6    D(9,1,5,4)            174.0014         estimate D2E/DX2                !
 ! D7    D(2,1,9,10)           175.3028         estimate D2E/DX2                !
 ! D8    D(2,1,9,11)            -2.8793         estimate D2E/DX2                !
 ! D9    D(5,1,9,10)             3.4786         estimate D2E/DX2                !
 ! D10   D(5,1,9,11)          -174.7034         estimate D2E/DX2                !
 ! D11   D(1,2,3,4)              1.0828         estimate D2E/DX2                !
 ! D12   D(1,2,3,6)           -178.978          estimate D2E/DX2                !
 ! D13   D(8,2,3,4)           -179.453          estimate D2E/DX2                !
 ! D14   D(8,2,3,6)              0.4862         estimate D2E/DX2                !
 ! D15   D(2,3,4,5)             -0.1638         estimate D2E/DX2                !
 ! D16   D(2,3,4,7)            179.7496         estimate D2E/DX2                !
 ! D17   D(6,3,4,5)            179.9056         estimate D2E/DX2                !
 ! D18   D(6,3,4,7)             -0.181          estimate D2E/DX2                !
 ! D19   D(3,4,5,1)             -0.8212         estimate D2E/DX2                !
 ! D20   D(7,4,5,1)            179.2578         estimate D2E/DX2                !
 ! D21   D(1,9,10,12)            0.0259         estimate D2E/DX2                !
 ! D22   D(11,9,10,12)         178.1239         estimate D2E/DX2                !
 --------------------------------------------------------------------------------
 Trust Radius=3.00D-01 FncErr=1.00D-07 GrdErr=1.00D-06 EigMax=2.50D+02 EigMin=1.00D-04
 Number of steps in this run=     61 maximum allowed number of steps=    100.
 GradGradGradGradGradGradGradGradGradGradGradGradGradGradGradGradGradGrad

                          Input orientation:                          
 ---------------------------------------------------------------------
 Center     Atomic      Atomic             Coordinates (Angstroms)
 Number     Number       Type             X           Y           Z
 ---------------------------------------------------------------------
      1          7           0       -0.010928   -0.011327    0.097115
      2          7           0        0.804539    1.089198    0.030316
      3          6           0        2.091626    0.613260   -0.039822
      4          6           0        1.987821   -0.758318   -0.036721
      5          7           0        0.702592   -1.172946    0.035288
      6          1           0        2.941613    1.272399   -0.085346
      7          1           0        2.786540   -1.482147   -0.084754
      8          1           0        0.388130    2.008535    0.047530
      9          6           0       -1.880554    0.164668    0.056637
     10          8           0       -2.506607   -1.012964    0.030695
     11          8           0       -2.417265    1.249126    0.022703
     12          1           0       -1.850704   -1.731945    0.038725
 ---------------------------------------------------------------------
                    Distance matrix (angstroms):
                    1          2          3          4          5
     1  N    0.000000
     2  N    1.371351   0.000000
     3  C    2.197634   1.374056   0.000000
     4  C    2.137968   2.194986   1.375504   0.000000
     5  N    1.364658   2.264445   2.263976   1.352374   0.000000
     6  H    3.224708   2.148028   1.076575   2.244080   3.317752
     7  H    3.165788   3.248597   2.208089   1.078975   2.110179
     8  H    2.059502   1.009393   2.203706   3.197121   3.197008
     9  C    1.878327   2.839925   3.998594   3.978058   2.909005
    10  O    2.690000   3.922088   4.877840   4.502141   3.213187
    11  O    2.717487   3.225780   4.553936   4.841296   3.949696
    12  H    2.519665   3.874175   4.587823   3.960797   2.613774
                    6          7          8          9         10
     6  H    0.000000
     7  H    2.758908   0.000000
     8  H    2.660795   4.237302   0.000000
     9  C    4.949800   4.951137   2.923501   0.000000
    10  O    5.909268   5.315154   4.184405   1.333954   0.000000
    11  O    5.360018   5.878009   2.906469   1.210479   2.263868
    12  H    5.657542   4.645608   4.359317   1.896932   0.973246
                   11         12
    11  O    0.000000
    12  H    3.034474   0.000000
 Stoichiometry    C3H4N3O2(2)
 Framework group  C1[X(C3H4N3O2)]
 Deg. of freedom    30
 Full point group                 C1      NOp   1
 Largest Abelian subgroup         C1      NOp   1
 Largest concise Abelian subgroup C1      NOp   1
                         Standard orientation:                         
 ---------------------------------------------------------------------
 Center     Atomic      Atomic             Coordinates (Angstroms)
 Number     Number       Type             X           Y           Z
 ---------------------------------------------------------------------
      1          7           0        0.182965   -0.031545    0.076416
      2          7           0        0.976779    1.085330    0.021160
      3          6           0        2.274061    0.635620   -0.032207
      4          6           0        2.198037   -0.737782   -0.031379
      5          7           0        0.920631   -1.178419    0.023302
      6          1           0        3.111047    1.311879   -0.066020
      7          1           0        3.011824   -1.445242   -0.069285
      8          1           0        0.541636    1.996029    0.033449
      9          6           0       -1.689143    0.106588    0.011254
     10          8           0       -2.290808   -1.083457   -0.023761
     11          8           0       -2.247220    1.179985   -0.029089
     12          1           0       -1.620635   -1.789014   -0.007499
 ---------------------------------------------------------------------
 Rotational constants (GHZ):           5.0689432           1.3789025           1.0847334
 Standard basis: 6-31+G(d,p) (6D, 7F)
 There are   172 symmetry adapted cartesian basis functions of A   symmetry.
 There are   172 symmetry adapted basis functions of A   symmetry.
   172 basis functions,   284 primitive gaussians,   172 cartesian basis functions
    30 alpha electrons       29 beta electrons
       nuclear repulsion energy       352.4914597130 Hartrees.
 NAtoms=   12 NActive=   12 NUniq=   12 SFac= 1.00D+00 NAtFMM=   60 NAOKFM=F Big=F
 Integral buffers will be    131072 words long.
 Raffenetti 2 integral format.
 Two-electron integral symmetry is turned on.
 ------------------------------------------------------------------------------
 Polarizable Continuum Model (PCM)
 =================================
 Model                : PCM.
 Atomic radii         : SMD-Coulomb.
 Polarization charges : Total charges.
 Charge compensation  : None.
 Solution method      : On-the-fly selection.
 Cavity type          : VdW (van der Waals Surface) (Alpha=1.000).
 Cavity algorithm     : GePol (No added spheres)
                        Default sphere list used, NSphG=   12.
                        Lebedev-Laikov grids with approx.  5.0 points / Ang**2.
                        Smoothing algorithm: York/Karplus (Gamma=1.0000).
                        Polarization charges: spherical gaussians, with
                                              point-specific exponents (IZeta= 3).
                        Self-potential: point-specific (ISelfS= 7).
                        Self-field    : sphere-specific E.n sum rule (ISelfD= 2).
 1st derivatives      : Analytical E(r).r(x)/FMM algorithm (CHGder, D1EAlg=3).
                        Cavity 1st derivative terms included.
 Solvent              : Water, Eps=  78.355300 Eps(inf)=   1.777849
 ------------------------------------------------------------------------------
 Spheres list:
 ISph  on   Nord     Re0    Alpha      Xe            Ye            Ze
    1   N      1    1.8900  1.000      0.182965     -0.031545      0.076416
    2   N      2    1.8900  1.000      0.976779      1.085330      0.021160
    3   C      3    1.8500  1.000      2.274061      0.635620     -0.032207
    4   C      4    1.8500  1.000      2.198037     -0.737782     -0.031379
    5   N      5    1.8900  1.000      0.920631     -1.178419      0.023302
    6   H      6    1.2000  1.000      3.111047      1.311879     -0.066020
    7   H      7    1.2000  1.000      3.011824     -1.445242     -0.069285
    8   H      8    1.2000  1.000      0.541636      1.996029      0.033449
    9   C      9    1.8500  1.000     -1.689143      0.106588      0.011254
   10   O     10    1.5200  1.000     -2.290808     -1.083457     -0.023761
   11   O     11    1.5200  1.000     -2.247220      1.179985     -0.029089
   12   H     12    1.2000  1.000     -1.620635     -1.789014     -0.007499
 ------------------------------------------------------------------------------
 ------------------------------------------------------------------------------
 Atomic radii for non-electrostatic terms: SMD-CDS.
 ------------------------------------------------------------------------------
 Nuclear repulsion after PCM non-electrostatic terms =      352.4994512862 Hartrees.
 One-electron integrals computed using PRISM.
 NBasis=   172 RedAO= T EigKep=  3.88D-05  NBF=   172
 NBsUse=   172 1.00D-06 EigRej= -1.00D+00 NBFU=   172
 ExpMin= 4.38D-02 ExpMax= 5.48D+03 ExpMxC= 8.25D+02 IAcc=3 IRadAn=         5 AccDes= 0.00D+00
 Harris functional with IExCor= 1009 and IRadAn=       5 diagonalized for initial guess.
 HarFok:  IExCor= 1009 AccDes= 0.00D+00 IRadAn=         5 IDoV= 1 UseB2=F ITyADJ=14
 ICtDFT=  3500011 ScaDFX=  1.000000  1.000000  1.000000  1.000000
 FoFCou: FMM=F IPFlag=           0 FMFlag=      100000 FMFlg1=           0
         NFxFlg=           0 DoJE=T BraDBF=F KetDBF=T FulRan=T
         wScrn=  0.000000 ICntrl=       500 IOpCl=  0 I1Cent=   200000004 NGrid=           0
         NMat0=    1 NMatS0=      1 NMatT0=    0 NMatD0=    1 NMtDS0=    0 NMtDT0=    0
 Petite list used in FoFCou.
 Initial guess <Sx>= 0.0000 <Sy>= 0.0000 <Sz>= 0.5000 <S**2>= 0.7500 S= 0.5000
 Keep R1 and R2 ints in memory in canonical form, NReq=245384874.
 Requested convergence on RMS density matrix=1.00D-08 within 128 cycles.
 Requested convergence on MAX density matrix=1.00D-06.
 Requested convergence on             energy=1.00D-06.
 No special actions if energy rises.
 Inv3:  Mode=1 IEnd=     3538188.
 Iteration    1 A*A^-1 deviation from unit magnitude is 3.11D-15 for    372.
 Iteration    1 A*A^-1 deviation from orthogonality  is 2.21D-15 for    500    311.
 Iteration    1 A^-1*A deviation from unit magnitude is 2.44D-15 for    209.
 Iteration    1 A^-1*A deviation from orthogonality  is 4.89D-13 for    928    881.
 Error on total polarization charges =  0.03954
 SCF Done:  E(UM062X) =  -431.133467435     A.U. after   24 cycles
            NFock= 24  Conv=0.78D-08     -V/T= 2.0096
 <Sx>= 0.0000 <Sy>= 0.0000 <Sz>= 0.5000 <S**2>= 0.7631 S= 0.5065
 <L.S>=  0.00000000000    
 SMD-CDS (non-electrostatic) energy       (kcal/mol) =       5.01
 (included in total energy above)
 Annihilation of the first spin contaminant:
 S**2 before annihilation     0.7631,   after     0.7501

 **********************************************************************

            Population analysis using the SCF density.

 **********************************************************************

 Orbital symmetries:
 Alpha Orbitals:
       Occupied  (A) (A) (A) (A) (A) (A) (A) (A) (A) (A) (A) (A)
                 (A) (A) (A) (A) (A) (A) (A) (A) (A) (A) (A) (A)
                 (A) (A) (A) (A) (A) (A)
       Virtual   (A) (A) (A) (A) (A) (A) (A) (A) (A) (A) (A) (A)
                 (A) (A) (A) (A) (A) (A) (A) (A) (A) (A) (A) (A)
                 (A) (A) (A) (A) (A) (A) (A) (A) (A) (A) (A) (A)
                 (A) (A) (A) (A) (A) (A) (A) (A) (A) (A) (A) (A)
                 (A) (A) (A) (A) (A) (A) (A) (A) (A) (A) (A) (A)
                 (A) (A) (A) (A) (A) (A) (A) (A) (A) (A) (A) (A)
                 (A) (A) (A) (A) (A) (A) (A) (A) (A) (A) (A) (A)
                 (A) (A) (A) (A) (A) (A) (A) (A) (A) (A) (A) (A)
                 (A) (A) (A) (A) (A) (A) (A) (A) (A) (A) (A) (A)
                 (A) (A) (A) (A) (A) (A) (A) (A) (A) (A) (A) (A)
                 (A) (A) (A) (A) (A) (A) (A) (A) (A) (A) (A) (A)
                 (A) (A) (A) (A) (A) (A) (A) (A) (A) (A)
 Beta  Orbitals:
       Occupied  (A) (A) (A) (A) (A) (A) (A) (A) (A) (A) (A) (A)
                 (A) (A) (A) (A) (A) (A) (A) (A) (A) (A) (A) (A)
                 (A) (A) (A) (A) (A)
       Virtual   (A) (A) (A) (A) (A) (A) (A) (A) (A) (A) (A) (A)
                 (A) (A) (A) (A) (A) (A) (A) (A) (A) (A) (A) (A)
                 (A) (A) (A) (A) (A) (A) (A) (A) (A) (A) (A) (A)
                 (A) (A) (A) (A) (A) (A) (A) (A) (A) (A) (A) (A)
                 (A) (A) (A) (A) (A) (A) (A) (A) (A) (A) (A) (A)
                 (A) (A) (A) (A) (A) (A) (A) (A) (A) (A) (A) (A)
                 (A) (A) (A) (A) (A) (A) (A) (A) (A) (A) (A) (A)
                 (A) (A) (A) (A) (A) (A) (A) (A) (A) (A) (A) (A)
                 (A) (A) (A) (A) (A) (A) (A) (A) (A) (A) (A) (A)
                 (A) (A) (A) (A) (A) (A) (A) (A) (A) (A) (A) (A)
                 (A) (A) (A) (A) (A) (A) (A) (A) (A) (A) (A) (A)
                 (A) (A) (A) (A) (A) (A) (A) (A) (A) (A) (A)
 The electronic state is 2-A.
 Alpha  occ. eigenvalues --  -19.73931 -19.69883 -14.86879 -14.83920 -14.78793
 Alpha  occ. eigenvalues --  -10.77368 -10.58479 -10.57506  -1.27176  -1.20132
 Alpha  occ. eigenvalues --   -1.19284  -1.00919  -0.90559  -0.75022  -0.73467
 Alpha  occ. eigenvalues --   -0.70033  -0.67532  -0.60176  -0.58184  -0.57382
 Alpha  occ. eigenvalues --   -0.54496  -0.52436  -0.50468  -0.49531  -0.44142
 Alpha  occ. eigenvalues --   -0.41439  -0.39014  -0.38560  -0.34499  -0.16017
 Alpha virt. eigenvalues --   -0.01177   0.01974   0.02380   0.03420   0.04236
 Alpha virt. eigenvalues --    0.05229   0.05642   0.06492   0.06653   0.09171
 Alpha virt. eigenvalues --    0.09473   0.10111   0.10604   0.12350   0.14531
 Alpha virt. eigenvalues --    0.15697   0.16286   0.18243   0.18733   0.19157
 Alpha virt. eigenvalues --    0.20171   0.21318   0.22562   0.23663   0.24070
 Alpha virt. eigenvalues --    0.25071   0.25571   0.26589   0.27021   0.28167
 Alpha virt. eigenvalues --    0.28550   0.29141   0.30039   0.31626   0.32017
 Alpha virt. eigenvalues --    0.33344   0.34527   0.35853   0.37568   0.38674
 Alpha virt. eigenvalues --    0.39457   0.42981   0.44692   0.48084   0.53063
 Alpha virt. eigenvalues --    0.57345   0.70055   0.71605   0.74012   0.76182
 Alpha virt. eigenvalues --    0.78675   0.85725   0.89073   0.90974   0.94311
 Alpha virt. eigenvalues --    0.95372   0.96696   0.97199   0.98220   1.01416
 Alpha virt. eigenvalues --    1.01844   1.03729   1.06254   1.10407   1.12435
 Alpha virt. eigenvalues --    1.17189   1.18078   1.18724   1.19383   1.24848
 Alpha virt. eigenvalues --    1.26659   1.28379   1.30241   1.33475   1.33893
 Alpha virt. eigenvalues --    1.35207   1.37107   1.37923   1.39769   1.41009
 Alpha virt. eigenvalues --    1.42026   1.43299   1.47278   1.52337   1.52814
 Alpha virt. eigenvalues --    1.57874   1.58934   1.62347   1.69155   1.76018
 Alpha virt. eigenvalues --    1.79616   1.83531   1.88335   1.90762   1.91295
 Alpha virt. eigenvalues --    1.96232   1.99202   2.02536   2.07540   2.09423
 Alpha virt. eigenvalues --    2.15526   2.18898   2.23184   2.25512   2.27202
 Alpha virt. eigenvalues --    2.31732   2.35088   2.35665   2.36683   2.41871
 Alpha virt. eigenvalues --    2.46206   2.47792   2.53815   2.58059   2.58332
 Alpha virt. eigenvalues --    2.60767   2.64565   2.64802   2.70057   2.70282
 Alpha virt. eigenvalues --    2.78041   2.78896   2.87945   2.94091   2.94830
 Alpha virt. eigenvalues --    2.97937   3.00321   3.08262   3.20261   3.20950
 Alpha virt. eigenvalues --    3.30451   3.48950   3.54722   3.77619   4.01805
 Alpha virt. eigenvalues --    4.17053   4.23205   4.31565   4.35186   4.43153
 Alpha virt. eigenvalues --    4.55672   4.72778
  Beta  occ. eigenvalues --  -19.73888 -19.69784 -14.86437 -14.83462 -14.78317
  Beta  occ. eigenvalues --  -10.77233 -10.58356 -10.57574  -1.26925  -1.19102
  Beta  occ. eigenvalues --   -1.18775  -0.99397  -0.89615  -0.74467  -0.72470
  Beta  occ. eigenvalues --   -0.69408  -0.66827  -0.59701  -0.57822  -0.56399
  Beta  occ. eigenvalues --   -0.52144  -0.51935  -0.50133  -0.49141  -0.43442
  Beta  occ. eigenvalues --   -0.40730  -0.37322  -0.34521  -0.31713
  Beta virt. eigenvalues --   -0.00653  -0.00048   0.02211   0.03547   0.04116
  Beta virt. eigenvalues --    0.04882   0.05484   0.05801   0.06676   0.07602
  Beta virt. eigenvalues --    0.08650   0.08870   0.10015   0.10479   0.12545
  Beta virt. eigenvalues --    0.14118   0.15552   0.16212   0.18261   0.18789
  Beta virt. eigenvalues --    0.19478   0.20118   0.21650   0.22566   0.23516
  Beta virt. eigenvalues --    0.23796   0.25257   0.25448   0.26512   0.26932
  Beta virt. eigenvalues --    0.28214   0.28610   0.29261   0.30232   0.31957
  Beta virt. eigenvalues --    0.32254   0.33479   0.34405   0.35599   0.37414
  Beta virt. eigenvalues --    0.38681   0.39562   0.43236   0.44819   0.48446
  Beta virt. eigenvalues --    0.53439   0.57798   0.70366   0.72094   0.74559
  Beta virt. eigenvalues --    0.76301   0.79021   0.85924   0.89234   0.91064
  Beta virt. eigenvalues --    0.94629   0.96771   0.97080   0.97412   0.99874
  Beta virt. eigenvalues --    1.01963   1.03825   1.04007   1.06514   1.10515
  Beta virt. eigenvalues --    1.12684   1.17301   1.18462   1.19009   1.19716
  Beta virt. eigenvalues --    1.24907   1.27114   1.28933   1.30447   1.33805
  Beta virt. eigenvalues --    1.34157   1.35376   1.37671   1.38915   1.40306
  Beta virt. eigenvalues --    1.41326   1.42554   1.43495   1.47843   1.52723
  Beta virt. eigenvalues --    1.53644   1.58083   1.59552   1.62887   1.69516
  Beta virt. eigenvalues --    1.76157   1.79753   1.83625   1.88567   1.91242
  Beta virt. eigenvalues --    1.91696   1.96675   1.99317   2.02819   2.08066
  Beta virt. eigenvalues --    2.09519   2.16066   2.20014   2.23545   2.26078
  Beta virt. eigenvalues --    2.27669   2.32115   2.35486   2.36099   2.37092
  Beta virt. eigenvalues --    2.42412   2.46577   2.47973   2.54174   2.58578
  Beta virt. eigenvalues --    2.58752   2.61038   2.64946   2.65367   2.70407
  Beta virt. eigenvalues --    2.70692   2.78650   2.79563   2.88290   2.94314
  Beta virt. eigenvalues --    2.94993   2.98223   3.00800   3.08548   3.20551
  Beta virt. eigenvalues --    3.21279   3.30808   3.49151   3.54856   3.78150
  Beta virt. eigenvalues --    4.02043   4.17141   4.23289   4.31761   4.36208
  Beta virt. eigenvalues --    4.43456   4.55912   4.73195
          Condensed to atoms (all electrons):
               1          2          3          4          5          6
     1  N    7.157167  -0.256266   0.038244   0.019072  -0.073828   0.011262
     2  N   -0.256266   7.401122   0.068895  -0.035349  -0.067575  -0.044400
     3  C    0.038244   0.068895   5.558674   0.173576  -0.029313   0.382347
     4  C    0.019072  -0.035349   0.173576   5.486729   0.158318  -0.012121
     5  N   -0.073828  -0.067575  -0.029313   0.158318   7.424356   0.001483
     6  H    0.011262  -0.044400   0.382347  -0.012121   0.001483   0.424231
     7  H    0.008946  -0.002068  -0.019124   0.392155  -0.049967  -0.000024
     8  H    0.014751   0.286425   0.011288  -0.012112   0.009227  -0.000689
     9  C    0.191660  -0.030838  -0.006092  -0.004698  -0.013491  -0.000027
    10  O   -0.052439   0.008542   0.001180  -0.002825  -0.013520   0.000007
    11  O   -0.044592  -0.004474  -0.001935  -0.000731   0.014802  -0.000011
    12  H    0.009001   0.006260  -0.003886   0.004923   0.000695  -0.000000
               7          8          9         10         11         12
     1  N    0.008946   0.014751   0.191660  -0.052439  -0.044592   0.009001
     2  N   -0.002068   0.286425  -0.030838   0.008542  -0.004474   0.006260
     3  C   -0.019124   0.011288  -0.006092   0.001180  -0.001935  -0.003886
     4  C    0.392155  -0.012112  -0.004698  -0.002825  -0.000731   0.004923
     5  N   -0.049967   0.009227  -0.013491  -0.013520   0.014802   0.000695
     6  H   -0.000024  -0.000689  -0.000027   0.000007  -0.000011  -0.000000
     7  H    0.454148  -0.000053   0.000131   0.000031  -0.000004  -0.000007
     8  H   -0.000053   0.284925  -0.001767   0.000452   0.001635  -0.000009
     9  C    0.000131  -0.001767   4.576063   0.220768   0.446822  -0.007405
    10  O    0.000031   0.000452   0.220768   8.110972  -0.084293   0.244869
    11  O   -0.000004   0.001635   0.446822  -0.084293   8.125156   0.008440
    12  H   -0.000007  -0.000009  -0.007405   0.244869   0.008440   0.275905
          Atomic-Atomic Spin Densities.
               1          2          3          4          5          6
     1  N    0.601902  -0.261312   0.098870   0.047037  -0.299626   0.000067
     2  N   -0.261312   0.595257  -0.192528  -0.046813   0.125003   0.000242
     3  C    0.098870  -0.192528   0.305511   0.084593  -0.085727  -0.003163
     4  C    0.047037  -0.046813   0.084593  -0.095755  -0.082732   0.002821
     5  N   -0.299626   0.125003  -0.085727  -0.082732   0.686774  -0.000232
     6  H    0.000067   0.000242  -0.003163   0.002821  -0.000232  -0.007729
     7  H    0.002341  -0.000059  -0.000597   0.002250  -0.003367   0.000056
     8  H   -0.003833   0.003675  -0.002947   0.002004  -0.001165   0.000084
     9  C    0.038148  -0.032399   0.003516  -0.000483  -0.018564   0.000019
    10  O   -0.010590   0.005279  -0.001254   0.000139   0.006953  -0.000002
    11  O   -0.017585   0.012583  -0.001662  -0.000498   0.004929  -0.000005
    12  H   -0.000863   0.000326  -0.000017   0.000008   0.000516  -0.000000
               7          8          9         10         11         12
     1  N    0.002341  -0.003833   0.038148  -0.010590  -0.017585  -0.000863
     2  N   -0.000059   0.003675  -0.032399   0.005279   0.012583   0.000326
     3  C   -0.000597  -0.002947   0.003516  -0.001254  -0.001662  -0.000017
     4  C    0.002250   0.002004  -0.000483   0.000139  -0.000498   0.000008
     5  N   -0.003367  -0.001165  -0.018564   0.006953   0.004929   0.000516
     6  H    0.000056   0.000084   0.000019  -0.000002  -0.000005  -0.000000
     7  H    0.001735   0.000000  -0.000017  -0.000006  -0.000001  -0.000000
     8  H    0.000000  -0.010565   0.000814  -0.000059  -0.000281  -0.000001
     9  C   -0.000017   0.000814   0.230051  -0.039947  -0.052636  -0.003382
    10  O   -0.000006  -0.000059  -0.039947   0.035899   0.007072   0.001567
    11  O   -0.000001  -0.000281  -0.052636   0.007072   0.082491   0.000149
    12  H   -0.000000  -0.000001  -0.003382   0.001567   0.000149   0.001017
 Mulliken charges and spin densities:
               1          2
     1  N   -0.022977   0.194557
     2  N   -0.330274   0.209253
     3  C   -0.173855   0.204595
     4  C   -0.166938  -0.087430
     5  N   -0.361188   0.332762
     6  H    0.237943  -0.007843
     7  H    0.215835   0.002334
     8  H    0.405926  -0.012273
     9  C    0.628873   0.125120
    10  O   -0.433745   0.005050
    11  O   -0.460815   0.034555
    12  H    0.461215  -0.000681
 Sum of Mulliken charges =  -0.00000   1.00000
 Mulliken charges and spin densities with hydrogens summed into heavy atoms:
               1          2
     1  N   -0.022977   0.194557
     2  N    0.075652   0.196980
     3  C    0.064088   0.196752
     4  C    0.048897  -0.085096
     5  N   -0.361188   0.332762
     9  C    0.628873   0.125120
    10  O    0.027470   0.004369
    11  O   -0.460815   0.034555
 Electronic spatial extent (au):  <R**2>=            992.0821
 Charge=             -0.0000 electrons
 Dipole moment (field-independent basis, Debye):
    X=              2.8226    Y=              0.9807    Z=             -0.0282  Tot=              2.9882
 Quadrupole moment (field-independent basis, Debye-Ang):
   XX=            -46.8135   YY=            -40.8771   ZZ=            -48.9112
   XY=              8.7855   XZ=             -0.6098   YZ=              0.2585
 Traceless Quadrupole moment (field-independent basis, Debye-Ang):
   XX=             -1.2795   YY=              4.6568   ZZ=             -3.3773
   XY=              8.7855   XZ=             -0.6098   YZ=              0.2585
 Octapole moment (field-independent basis, Debye-Ang**2):
  XXX=             38.0361  YYY=              7.9671  ZZZ=              0.0568  XYY=              2.8528
  XXY=             -8.0041  XXZ=             -0.4280  XZZ=            -11.1580  YZZ=              0.8794
  YYZ=             -0.2028  XYZ=              0.0486
 Hexadecapole moment (field-independent basis, Debye-Ang**3):
 XXXX=           -924.7757 YYYY=           -245.8998 ZZZZ=            -52.7226 XXXY=             23.0886
 XXXZ=             -2.7737 YYYX=             42.9379 YYYZ=              1.2477 ZZZX=              0.9459
 ZZZY=              0.2048 XXYY=           -186.6954 XXZZ=           -178.0346 YYZZ=            -60.1934
 XXYZ=              0.1960 YYXZ=             -0.4916 ZZXY=              1.4639
 N-N= 3.524994512862D+02 E-N=-1.711809339775D+03  KE= 4.270522881137D+02
                          Isotropic Fermi Contact Couplings
        Atom                 a.u.       MegaHertz       Gauss      10(-4) cm-1
     1  N(14)              0.12480      40.32462      14.38883      13.45084
     2  N(14)              0.06239      20.15955       7.19343       6.72450
     3  C(13)              0.02361      26.53781       9.46935       8.85206
     4  C(13)             -0.02023     -22.74399      -8.11562      -7.58658
     5  N(14)              0.09111      29.43936      10.50470       9.81991
     6  H(1)              -0.00273     -12.21606      -4.35899      -4.07484
     7  H(1)               0.00047       2.11692       0.75537       0.70613
     8  H(1)              -0.00575     -25.70646      -9.17270      -8.57475
     9  C(13)              0.07864      88.40534      31.54522      29.48885
    10  O(17)              0.00924      -5.60065      -1.99845      -1.86817
    11  O(17)              0.01733     -10.50376      -3.74800      -3.50368
    12  H(1)               0.00005       0.20227       0.07217       0.06747
 --------------------------------------------------------
       Center         ----  Spin Dipole Couplings  ----
                      3XX-RR        3YY-RR        3ZZ-RR
 --------------------------------------------------------
     1   Atom       -0.259342     -0.285242      0.544584
     2   Atom       -0.330326     -0.312666      0.642991
     3   Atom       -0.077552     -0.089291      0.166843
     4   Atom        0.039663      0.028870     -0.068533
     5   Atom       -0.365595     -0.362231      0.727826
     6   Atom        0.006053     -0.002621     -0.003431
     7   Atom        0.004354      0.001572     -0.005926
     8   Atom       -0.020837      0.029808     -0.008971
     9   Atom        0.038533     -0.067742      0.029209
    10   Atom       -0.012054     -0.024796      0.036850
    11   Atom       -0.036786     -0.095654      0.132440
    12   Atom        0.002753      0.004544     -0.007298
 --------------------------------------------------------
                        XY            XZ            YZ
 --------------------------------------------------------
     1   Atom       -0.003320     -0.290530      0.019723
     2   Atom        0.002434     -0.023356     -0.064220
     3   Atom        0.002141     -0.004701      0.001871
     4   Atom        0.004946     -0.009990     -0.000031
     5   Atom        0.001260     -0.030359      0.032928
     6   Atom        0.016086     -0.001076     -0.000013
     7   Atom       -0.000538     -0.000977     -0.000117
     8   Atom       -0.025718      0.000565     -0.003035
     9   Atom       -0.013386     -0.107209      0.014628
    10   Atom        0.022110     -0.071419     -0.059065
    11   Atom       -0.010500     -0.171700     -0.005087
    12   Atom        0.003185      0.000686     -0.002176
 --------------------------------------------------------


 ---------------------------------------------------------------------------------
              Anisotropic Spin Dipole Couplings in Principal Axis System
 ---------------------------------------------------------------------------------

       Atom             a.u.   MegaHertz   Gauss  10(-4) cm-1        Axes

              Baa    -0.3535   -13.633    -4.864    -4.547  0.9503 -0.0429  0.3084
     1 N(14)  Bbb    -0.2855   -11.013    -3.930    -3.673  0.0474  0.9989 -0.0071
              Bcc     0.6390    24.645     8.794     8.221 -0.3077  0.0214  0.9512
 
              Baa    -0.3309   -12.764    -4.554    -4.258  0.9978 -0.0635  0.0197
     2 N(14)  Bbb    -0.3169   -12.222    -4.361    -4.077  0.0621  0.9957  0.0681
              Bcc     0.6479    24.986     8.916     8.334 -0.0240 -0.0668  0.9975
 
              Baa    -0.0897   -12.037    -4.295    -4.015 -0.1775  0.9841 -0.0104
     3 C(13)  Bbb    -0.0772   -10.366    -3.699    -3.458  0.9839  0.1777  0.0176
              Bcc     0.1669    22.403     7.994     7.473 -0.0192  0.0071  0.9998
 
              Baa    -0.0694    -9.319    -3.325    -3.109  0.0914 -0.0043  0.9958
     4 C(13)  Bbb     0.0271     3.633     1.296     1.212 -0.3410  0.9394  0.0353
              Bcc     0.0424     5.686     2.029     1.897  0.9356  0.3428 -0.0844
 
              Baa    -0.3675   -14.175    -5.058    -4.728  0.8923 -0.4497  0.0383
     5 N(14)  Bbb    -0.3621   -13.966    -4.984    -4.659  0.4505  0.8926 -0.0144
              Bcc     0.7297    28.141    10.042     9.387 -0.0277  0.0301  0.9992
 
              Baa    -0.0150    -7.993    -2.852    -2.666 -0.6083  0.7917 -0.0558
     6 H(1)   Bbb    -0.0034    -1.830    -0.653    -0.610 -0.0026  0.0683  0.9977
              Bcc     0.0184     9.823     3.505     3.276  0.7937  0.6071 -0.0394
 
              Baa    -0.0060    -3.213    -1.146    -1.072  0.0948  0.0221  0.9952
     7 H(1)   Bbb     0.0015     0.791     0.282     0.264  0.1714  0.9845 -0.0382
              Bcc     0.0045     2.422     0.864     0.808  0.9806 -0.1742 -0.0896
 
              Baa    -0.0316   -16.874    -6.021    -5.628  0.9215  0.3872  0.0289
     8 H(1)   Bbb    -0.0091    -4.874    -1.739    -1.626 -0.0501  0.0447  0.9977
              Bcc     0.0408    21.748     7.760     7.254 -0.3850  0.9209 -0.0606
 
              Baa    -0.0738    -9.909    -3.536    -3.305  0.6416 -0.2925  0.7090
     9 C(13)  Bbb    -0.0692    -9.286    -3.313    -3.097  0.2678  0.9517  0.1503
              Bcc     0.1430    19.194     6.849     6.403  0.7188 -0.0935 -0.6890
 
              Baa    -0.0735     5.318     1.898     1.774  0.5574  0.5260  0.6423
    10 O(17)  Bbb    -0.0413     2.986     1.066     0.996 -0.6618  0.7487 -0.0389
              Bcc     0.1148    -8.304    -2.963    -2.770 -0.5014 -0.4034  0.7654
 
              Baa    -0.1463    10.583     3.776     3.530  0.8280  0.2235  0.5142
    11 O(17)  Bbb    -0.0930     6.729     2.401     2.245 -0.1879  0.9747 -0.1211
              Bcc     0.2392   -17.312    -6.177    -5.775 -0.5283  0.0037  0.8491
 
              Baa    -0.0078    -4.182    -1.492    -1.395 -0.1238  0.2025  0.9714
    12 H(1)   Bbb     0.0008     0.403     0.144     0.135  0.8051 -0.5518  0.2177
              Bcc     0.0071     3.779     1.348     1.261  0.5801  0.8090 -0.0947
 

 ---------------------------------------------------------------------------------

 D1PCM: PCM CHGder 1st derivatives, ID1Alg=3 FixD1E=F DoIter=F DoCFld=F I1PDM=0.
 Calling FoFJK, ICntrl=      2127 FMM=F ISym2X=0 I1Cent= 0 IOpClX= 1 NMat=1 NMatS=1 NMatT=0.
 ***** Axes restored to original set *****
 -------------------------------------------------------------------
 Center     Atomic                   Forces (Hartrees/Bohr)
 Number     Number              X              Y              Z
 -------------------------------------------------------------------
      1        7          -0.082571599    0.000283110    0.025583903
      2        7          -0.007834403   -0.007625105   -0.003660912
      3        6           0.003395823   -0.002511566   -0.001644121
      4        6           0.006866194    0.007420857   -0.002481826
      5        7          -0.015050543    0.005692406   -0.002294371
      6        1           0.000651166    0.000621709   -0.001603990
      7        1           0.001161215    0.000003985   -0.000716739
      8        1           0.003492014    0.003814408    0.001220869
      9        6           0.028104774    0.010359403   -0.037373391
     10        8           0.027849676    0.021334418    0.010905335
     11        8           0.033225379   -0.033075585    0.012562467
     12        1           0.000710304   -0.006318042   -0.000497222
 -------------------------------------------------------------------
 Cartesian Forces:  Max     0.082571599 RMS     0.019771085

 GradGradGradGradGradGradGradGradGradGradGradGradGradGradGradGradGradGrad
 Berny optimization.
 FormGI is forming the generalized inverse of G from B-inverse, IUseBI=4.
 Internal  Forces:  Max     0.089898622 RMS     0.015724932
 Search for a local minimum.
 Step number   1 out of a maximum of   61
 All quantities printed in internal units (Hartrees-Bohrs-Radians)
 Mixed Optimization -- RFO/linear search
 Second derivative matrix not updated -- first step.
 ITU=  0
     Eigenvalues ---    0.00230   0.01061   0.01164   0.01797   0.01909
     Eigenvalues ---    0.02228   0.02237   0.02387   0.02565   0.11584
     Eigenvalues ---    0.15999   0.16000   0.16000   0.16000   0.22187
     Eigenvalues ---    0.23993   0.24777   0.24993   0.25000   0.36118
     Eigenvalues ---    0.36411   0.43852   0.45959   0.46074   0.50310
     Eigenvalues ---    0.51318   0.52719   0.53321   0.58582   0.99729
 RFO step:  Lambda=-6.00681964D-02 EMin= 2.30000000D-03
 Linear search not attempted -- first point.
 Maximum step size (   0.300) exceeded in Quadratic search.
    -- Step size scaled by   0.569
 Iteration  1 RMS(Cart)=  0.05875199 RMS(Int)=  0.01320932
 Iteration  2 RMS(Cart)=  0.02111715 RMS(Int)=  0.00066283
 Iteration  3 RMS(Cart)=  0.00002592 RMS(Int)=  0.00066264
 Iteration  4 RMS(Cart)=  0.00000001 RMS(Int)=  0.00066264
 Variable       Old X    -DE/DX   Delta X   Delta X   Delta X     New X
                                 (Linear)    (Quad)   (Total)
    R1        2.59148  -0.00108   0.00000  -0.00136  -0.00127   2.59021
    R2        2.57883  -0.00986   0.00000  -0.00981  -0.00973   2.56910
    R3        3.54952  -0.08990   0.00000  -0.29065  -0.29065   3.25888
    R4        2.59659   0.00192   0.00000   0.00191   0.00190   2.59849
    R5        1.90748   0.00206   0.00000   0.00225   0.00225   1.90972
    R6        2.59933  -0.00486   0.00000  -0.00468  -0.00479   2.59454
    R7        2.03443   0.00097   0.00000   0.00130   0.00130   2.03573
    R8        2.55562   0.00954   0.00000   0.00915   0.00910   2.56472
    R9        2.03897   0.00089   0.00000   0.00120   0.00120   2.04016
   R10        2.52081  -0.02684   0.00000  -0.02364  -0.02364   2.49717
   R11        2.28747  -0.04473   0.00000  -0.02406  -0.02406   2.26342
   R12        1.83917   0.00516   0.00000   0.00500   0.00500   1.84416
    A1        1.94979   0.00103   0.00000  -0.00032  -0.00060   1.94919
    A2        2.11256  -0.00009   0.00000  -0.00170  -0.00235   2.11021
    A3        2.21332  -0.00179   0.00000  -0.00480  -0.00543   2.20789
    A4        1.85618   0.00189   0.00000   0.00364   0.00380   1.85997
    A5        2.07690   0.00349   0.00000   0.00966   0.00956   2.08645
    A6        2.35007  -0.00537   0.00000  -0.01322  -0.01332   2.33675
    A7        1.84895  -0.00225   0.00000  -0.00379  -0.00381   1.84514
    A8        2.12898   0.00107   0.00000   0.00175   0.00174   2.13072
    A9        2.30526   0.00118   0.00000   0.00204   0.00204   2.30729
   A10        1.95795  -0.00044   0.00000   0.00025   0.00021   1.95816
   A11        2.23061  -0.00062   0.00000  -0.00230  -0.00229   2.22831
   A12        2.09462   0.00106   0.00000   0.00204   0.00205   2.09667
   A13        1.81144  -0.00022   0.00000   0.00021   0.00040   1.81184
   A14        1.96584  -0.01453   0.00000  -0.02578  -0.02779   1.93805
   A15        2.12455  -0.01004   0.00000  -0.01761  -0.01954   2.10501
   A16        2.19231   0.02500   0.00000   0.04680   0.04467   2.23698
   A17        1.91317   0.00689   0.00000   0.01780   0.01780   1.93097
    D1       -0.02934   0.00025   0.00000   0.00034   0.00034  -0.02900
    D2        3.11986  -0.00116   0.00000  -0.00949  -0.00961   3.11025
    D3       -3.04807   0.00735   0.00000   0.05614   0.05623  -2.99185
    D4        0.10113   0.00595   0.00000   0.04631   0.04627   0.14740
    D5        0.02684  -0.00009   0.00000   0.00116   0.00115   0.02798
    D6        3.03690  -0.00753   0.00000  -0.05828  -0.05825   2.97864
    D7        3.05961   0.00304   0.00000   0.02373   0.02282   3.08243
    D8       -0.05025  -0.01107   0.00000  -0.08830  -0.08727  -0.13752
    D9        0.06071   0.01106   0.00000   0.08816   0.08713   0.14784
   D10       -3.04915  -0.00306   0.00000  -0.02387  -0.02296  -3.07211
   D11        0.01890  -0.00041   0.00000  -0.00180  -0.00179   0.01710
   D12       -3.12375  -0.00128   0.00000  -0.00827  -0.00825  -3.13201
   D13       -3.13205   0.00139   0.00000   0.01046   0.01039  -3.12166
   D14        0.00849   0.00051   0.00000   0.00399   0.00393   0.01242
   D15       -0.00286   0.00036   0.00000   0.00269   0.00267  -0.00019
   D16        3.13722  -0.00068   0.00000  -0.00512  -0.00512   3.13210
   D17        3.13995   0.00136   0.00000   0.01008   0.01005  -3.13319
   D18       -0.00316   0.00032   0.00000   0.00227   0.00227  -0.00089
   D19       -0.01433  -0.00018   0.00000  -0.00240  -0.00239  -0.01672
   D20        3.12864   0.00077   0.00000   0.00473   0.00474   3.13338
   D21        0.00045  -0.00738   0.00000  -0.06051  -0.06214  -0.06169
   D22        3.10885   0.00659   0.00000   0.05523   0.05685  -3.11748
         Item               Value     Threshold  Converged?
 Maximum Force            0.089899     0.000450     NO 
 RMS     Force            0.015725     0.000300     NO 
 Maximum Displacement     0.242796     0.001800     NO 
 RMS     Displacement     0.078885     0.001200     NO 
 Predicted change in Energy=-2.810583D-02
 GradGradGradGradGradGradGradGradGradGradGradGradGradGradGradGradGradGrad

                          Input orientation:                          
 ---------------------------------------------------------------------
 Center     Atomic      Atomic             Coordinates (Angstroms)
 Number     Number       Type             X           Y           Z
 ---------------------------------------------------------------------
      1          7           0       -0.072566   -0.004669    0.117670
      2          7           0        0.752057    1.087831    0.045533
      3          6           0        2.036641    0.604609   -0.038914
      4          6           0        1.920384   -0.763429   -0.035890
      5          7           0        0.627486   -1.167903    0.046430
      6          1           0        2.890977    1.258076   -0.098763
      7          1           0        2.713630   -1.493161   -0.097573
      8          1           0        0.352171    2.015821    0.059815
      9          6           0       -1.785153    0.169903    0.014945
     10          8           0       -2.384108   -1.007858    0.033647
     11          8           0       -2.288783    1.256610    0.019974
     12          1           0       -1.725932   -1.728291    0.045493
 ---------------------------------------------------------------------
                    Distance matrix (angstroms):
                    1          2          3          4          5
     1  N    0.000000
     2  N    1.370679   0.000000
     3  C    2.201020   1.375060   0.000000
     4  C    2.138024   2.190612   1.372972   0.000000
     5  N    1.359508   2.259171   2.266009   1.357189   0.000000
     6  H    3.228615   2.150531   1.077261   2.243320   3.321121
     7  H    3.166201   3.244961   2.205084   1.079608   2.116253
     8  H    2.065461   1.010583   2.199706   3.192598   3.195633
     9  C    1.724523   2.698325   3.846813   3.821609   2.758902
    10  O    2.521245   3.771947   4.706202   4.311987   3.015871
    11  O    2.551859   3.045627   4.374684   4.669129   3.792570
    12  H    2.389498   3.751129   4.427923   3.772692   2.419217
                    6          7          8          9         10
     6  H    0.000000
     7  H    2.756948   0.000000
     8  H    2.654215   4.232519   0.000000
     9  C    4.802420   4.797654   2.824461   0.000000
    10  O    5.742692   5.122467   4.078056   1.321446   0.000000
    11  O    5.181121   5.709570   2.748204   1.197748   2.266515
    12  H    5.500458   4.448085   4.282183   1.899363   0.975889
                   11         12
    11  O    0.000000
    12  H    3.037612   0.000000
 Stoichiometry    C3H4N3O2(2)
 Framework group  C1[X(C3H4N3O2)]
 Deg. of freedom    30
 Full point group                 C1      NOp   1
 Largest Abelian subgroup         C1      NOp   1
 Largest concise Abelian subgroup C1      NOp   1
                         Standard orientation:                         
 ---------------------------------------------------------------------
 Center     Atomic      Atomic             Coordinates (Angstroms)
 Number     Number       Type             X           Y           Z
 ---------------------------------------------------------------------
      1          7           0        0.113018   -0.027849    0.094402
      2          7           0        0.912599    1.083763    0.033149
      3          6           0        2.209022    0.630869   -0.037318
      4          6           0        2.124805   -0.739517   -0.037479
      5          7           0        0.840881   -1.174267    0.029559
      6          1           0        3.048446    1.304245   -0.086543
      7          1           0        2.935569   -1.450388   -0.091115
      8          1           0        0.490956    2.002117    0.044137
      9          6           0       -1.601909    0.106768   -0.027586
     10          8           0       -2.173296   -1.084714   -0.017309
     11          8           0       -2.130873    1.181383   -0.026816
     12          1           0       -1.498607   -1.789567    0.001053
 ---------------------------------------------------------------------
 Rotational constants (GHZ):           5.0706429           1.5128040           1.1664058
 Standard basis: 6-31+G(d,p) (6D, 7F)
 There are   172 symmetry adapted cartesian basis functions of A   symmetry.
 There are   172 symmetry adapted basis functions of A   symmetry.
   172 basis functions,   284 primitive gaussians,   172 cartesian basis functions
    30 alpha electrons       29 beta electrons
       nuclear repulsion energy       359.8251120647 Hartrees.
 NAtoms=   12 NActive=   12 NUniq=   12 SFac= 1.00D+00 NAtFMM=   60 NAOKFM=F Big=F
 Integral buffers will be    131072 words long.
 Raffenetti 2 integral format.
 Two-electron integral symmetry is turned on.
 ------------------------------------------------------------------------------
 Polarizable Continuum Model (PCM)
 =================================
 Model                : PCM.
 Atomic radii         : SMD-Coulomb.
 Polarization charges : Total charges.
 Charge compensation  : None.
 Solution method      : On-the-fly selection.
 Cavity type          : VdW (van der Waals Surface) (Alpha=1.000).
 Cavity algorithm     : GePol (No added spheres)
                        Default sphere list used, NSphG=   12.
                        Lebedev-Laikov grids with approx.  5.0 points / Ang**2.
                        Smoothing algorithm: York/Karplus (Gamma=1.0000).
                        Polarization charges: spherical gaussians, with
                                              point-specific exponents (IZeta= 3).
                        Self-potential: point-specific (ISelfS= 7).
                        Self-field    : sphere-specific E.n sum rule (ISelfD= 2).
 1st derivatives      : Analytical E(r).r(x)/FMM algorithm (CHGder, D1EAlg=3).
                        Cavity 1st derivative terms included.
 Solvent              : Water, Eps=  78.355300 Eps(inf)=   1.777849
 ------------------------------------------------------------------------------
 Spheres list:
 ISph  on   Nord     Re0    Alpha      Xe            Ye            Ze
    1   N      1    1.8900  1.000      0.113018     -0.027849      0.094402
    2   N      2    1.8900  1.000      0.912599      1.083763      0.033149
    3   C      3    1.8500  1.000      2.209022      0.630869     -0.037318
    4   C      4    1.8500  1.000      2.124805     -0.739517     -0.037479
    5   N      5    1.8900  1.000      0.840881     -1.174267      0.029559
    6   H      6    1.2000  1.000      3.048446      1.304245     -0.086543
    7   H      7    1.2000  1.000      2.935569     -1.450388     -0.091115
    8   H      8    1.2000  1.000      0.490956      2.002117      0.044137
    9   C      9    1.8500  1.000     -1.601909      0.106768     -0.027586
   10   O     10    1.5200  1.000     -2.173296     -1.084714     -0.017309
   11   O     11    1.5200  1.000     -2.130873      1.181383     -0.026816
   12   H     12    1.2000  1.000     -1.498607     -1.789567      0.001053
 ------------------------------------------------------------------------------
 ------------------------------------------------------------------------------
 Atomic radii for non-electrostatic terms: SMD-CDS.
 ------------------------------------------------------------------------------
 Nuclear repulsion after PCM non-electrostatic terms =      359.8329658126 Hartrees.
 One-electron integrals computed using PRISM.
 NBasis=   172 RedAO= T EigKep=  3.59D-05  NBF=   172
 NBsUse=   172 1.00D-06 EigRej= -1.00D+00 NBFU=   172
 Initial guess from the checkpoint file:  "/scratch/gongke2021/1-H-Tz-RC/Gau-1066.chk"
 B after Tr=     0.000000   -0.000000   -0.000000
         Rot=    1.000000    0.000093    0.000438    0.000440 Ang=   0.07 deg.
 Initial guess <Sx>= 0.0000 <Sy>= 0.0000 <Sz>= 0.5000 <S**2>= 0.7628 S= 0.5064
 ExpMin= 4.38D-02 ExpMax= 5.48D+03 ExpMxC= 8.25D+02 IAcc=2 IRadAn=         4 AccDes= 0.00D+00
 Harris functional with IExCor= 1009 and IRadAn=       4 diagonalized for initial guess.
 HarFok:  IExCor= 1009 AccDes= 0.00D+00 IRadAn=         4 IDoV= 1 UseB2=F ITyADJ=14
 ICtDFT=  3500011 ScaDFX=  1.000000  1.000000  1.000000  1.000000
 FoFCou: FMM=F IPFlag=           0 FMFlag=      100000 FMFlg1=           0
         NFxFlg=           0 DoJE=T BraDBF=F KetDBF=T FulRan=T
         wScrn=  0.000000 ICntrl=       500 IOpCl=  0 I1Cent=   200000004 NGrid=           0
         NMat0=    1 NMatS0=      1 NMatT0=    0 NMatD0=    1 NMtDS0=    0 NMtDT0=    0
 Petite list used in FoFCou.
 Keep R1 and R2 ints in memory in canonical form, NReq=245384874.
 Requested convergence on RMS density matrix=1.00D-08 within 128 cycles.
 Requested convergence on MAX density matrix=1.00D-06.
 Requested convergence on             energy=1.00D-06.
 No special actions if energy rises.
 Inv3:  Mode=1 IEnd=     3377163.
 Iteration    1 A*A^-1 deviation from unit magnitude is 2.89D-15 for    193.
 Iteration    1 A*A^-1 deviation from orthogonality  is 1.74D-15 for    193     97.
 Iteration    1 A^-1*A deviation from unit magnitude is 2.89D-15 for    193.
 Iteration    1 A^-1*A deviation from orthogonality  is 1.68D-15 for    391     29.
 Error on total polarization charges =  0.03898
 SCF Done:  E(UM062X) =  -431.167610509     A.U. after   18 cycles
            NFock= 18  Conv=0.48D-08     -V/T= 2.0093
 <Sx>= 0.0000 <Sy>= 0.0000 <Sz>= 0.5000 <S**2>= 0.7619 S= 0.5059
 <L.S>=  0.00000000000    
 SMD-CDS (non-electrostatic) energy       (kcal/mol) =       4.93
 (included in total energy above)
 Annihilation of the first spin contaminant:
 S**2 before annihilation     0.7619,   after     0.7501
 D1PCM: PCM CHGder 1st derivatives, ID1Alg=3 FixD1E=F DoIter=F DoCFld=F I1PDM=0.
 Calling FoFJK, ICntrl=      2127 FMM=F ISym2X=0 I1Cent= 0 IOpClX= 1 NMat=1 NMatS=1 NMatT=0.
 ***** Axes restored to original set *****
 -------------------------------------------------------------------
 Center     Atomic                   Forces (Hartrees/Bohr)
 Number     Number              X              Y              Z
 -------------------------------------------------------------------
      1        7          -0.093550733    0.009204417    0.007447545
      2        7          -0.005445535   -0.001278998   -0.002374744
      3        6           0.000353846   -0.002380128   -0.001147213
      4        6           0.004626740    0.003314983   -0.001575913
      5        7          -0.009021998   -0.000479137   -0.001941860
      6        1           0.000060781    0.000348917   -0.000286199
      7        1           0.000307778    0.000021354    0.000080056
      8        1           0.002651948    0.002414778    0.000554959
      9        6           0.074391335   -0.010947450   -0.003718965
     10        8           0.013141670    0.011000356    0.002102501
     11        8           0.011392773   -0.008272107    0.001404836
     12        1           0.001091394   -0.002946985   -0.000545003
 -------------------------------------------------------------------
 Cartesian Forces:  Max     0.093550733 RMS     0.020579095

 GradGradGradGradGradGradGradGradGradGradGradGradGradGradGradGradGradGrad
 Berny optimization.
 Using GEDIIS/GDIIS optimizer.
 FormGI is forming the generalized inverse of G from B-inverse, IUseBI=4.
 Internal  Forces:  Max     0.100395181 RMS     0.014568706
 Search for a local minimum.
 Step number   2 out of a maximum of   61
 All quantities printed in internal units (Hartrees-Bohrs-Radians)
 Mixed Optimization -- RFO/linear search
 Update second derivatives using D2CorX and points    1    2
 DE= -3.41D-02 DEPred=-2.81D-02 R= 1.21D+00
 TightC=F SS=  1.41D+00  RLast= 3.50D-01 DXNew= 5.0454D-01 1.0486D+00
 Trust test= 1.21D+00 RLast= 3.50D-01 DXMaxT set to 5.05D-01
 ITU=  1  0
 Use linear search instead of GDIIS.
     Eigenvalues ---    0.00138   0.00230   0.01224   0.01755   0.01898
     Eigenvalues ---    0.02225   0.02231   0.02385   0.02566   0.05945
     Eigenvalues ---    0.15996   0.15999   0.16000   0.16500   0.22290
     Eigenvalues ---    0.23948   0.24501   0.24981   0.33224   0.36150
     Eigenvalues ---    0.36450   0.43975   0.45961   0.46096   0.50460
     Eigenvalues ---    0.51769   0.52778   0.54024   0.64252   1.68840
 RFO step:  Lambda=-1.02033483D-01 EMin= 1.37799875D-03
 Skip linear search -- no minimum in search direction.
 Maximum step size (   0.505) exceeded in Quadratic search.
    -- Step size scaled by   0.516
 Iteration  1 RMS(Cart)=  0.06824146 RMS(Int)=  0.04071991
 Iteration  2 RMS(Cart)=  0.04458778 RMS(Int)=  0.01271607
 Iteration  3 RMS(Cart)=  0.02029053 RMS(Int)=  0.00029260
 Iteration  4 RMS(Cart)=  0.00002845 RMS(Int)=  0.00029188
 Iteration  5 RMS(Cart)=  0.00000001 RMS(Int)=  0.00029188
 Variable       Old X    -DE/DX   Delta X   Delta X   Delta X     New X
                                 (Linear)    (Quad)   (Total)
    R1        2.59021  -0.00032   0.00000  -0.00240  -0.00237   2.58783
    R2        2.56910  -0.00325   0.00000  -0.01729  -0.01727   2.55183
    R3        3.25888  -0.10040   0.00000  -0.48967  -0.48967   2.76921
    R4        2.59849   0.00116   0.00000   0.00375   0.00375   2.60224
    R5        1.90972   0.00117   0.00000   0.00426   0.00426   1.91398
    R6        2.59454  -0.00169   0.00000  -0.00818  -0.00821   2.58633
    R7        2.03573   0.00027   0.00000   0.00210   0.00210   2.03783
    R8        2.56472   0.00473   0.00000   0.01724   0.01723   2.58194
    R9        2.04016   0.00021   0.00000   0.00190   0.00190   2.04207
   R10        2.49717  -0.01362   0.00000  -0.04520  -0.04520   2.45197
   R11        2.26342  -0.01228   0.00000  -0.04443  -0.04443   2.21899
   R12        1.84416   0.00289   0.00000   0.00961   0.00961   1.85377
    A1        1.94919   0.00260   0.00000   0.00378   0.00370   1.95289
    A2        2.11021   0.00212   0.00000   0.00226   0.00207   2.11228
    A3        2.20789  -0.00536   0.00000  -0.01112  -0.01127   2.19662
    A4        1.85997  -0.00133   0.00000   0.00223   0.00228   1.86225
    A5        2.08645   0.00387   0.00000   0.01715   0.01712   2.10357
    A6        2.33675  -0.00254   0.00000  -0.01940  -0.01943   2.31732
    A7        1.84514   0.00061   0.00000  -0.00387  -0.00387   1.84127
    A8        2.13072  -0.00052   0.00000   0.00140   0.00140   2.13212
    A9        2.30729  -0.00009   0.00000   0.00244   0.00244   2.30973
   A10        1.95816  -0.00042   0.00000  -0.00008  -0.00010   1.95806
   A11        2.22831  -0.00000   0.00000  -0.00279  -0.00278   2.22553
   A12        2.09667   0.00042   0.00000   0.00284   0.00285   2.09952
   A13        1.81184  -0.00147   0.00000  -0.00205  -0.00200   1.80984
   A14        1.93805  -0.00852   0.00000  -0.04656  -0.04680   1.89125
   A15        2.10501  -0.00368   0.00000  -0.02999  -0.03015   2.07486
   A16        2.23698   0.01201   0.00000   0.07356   0.07319   2.31017
   A17        1.93097   0.00217   0.00000   0.02381   0.02381   1.95479
    D1       -0.02900  -0.00035   0.00000   0.00052   0.00051  -0.02849
    D2        3.11025  -0.00080   0.00000  -0.00491  -0.00503   3.10522
    D3       -2.99185   0.00384   0.00000   0.03003   0.03018  -2.96167
    D4        0.14740   0.00339   0.00000   0.02459   0.02464   0.17203
    D5        0.02798   0.00037   0.00000   0.00015   0.00015   0.02813
    D6        2.97864  -0.00310   0.00000  -0.02956  -0.02947   2.94918
    D7        3.08243  -0.00101   0.00000   0.00065   0.00006   3.08249
    D8       -0.13752  -0.00282   0.00000  -0.03296  -0.03225  -0.16978
    D9        0.14784   0.00281   0.00000   0.03291   0.03220   0.18004
   D10       -3.07211   0.00100   0.00000  -0.00071  -0.00012  -3.07222
   D11        0.01710   0.00012   0.00000  -0.00120  -0.00118   0.01593
   D12       -3.13201  -0.00016   0.00000  -0.00421  -0.00419  -3.13619
   D13       -3.12166   0.00066   0.00000   0.00528   0.00525  -3.11641
   D14        0.01242   0.00038   0.00000   0.00227   0.00224   0.01466
   D15       -0.00019   0.00006   0.00000   0.00131   0.00128   0.00109
   D16        3.13210  -0.00013   0.00000  -0.00200  -0.00200   3.13010
   D17       -3.13319   0.00039   0.00000   0.00476   0.00474  -3.12845
   D18       -0.00089   0.00020   0.00000   0.00145   0.00146   0.00056
   D19       -0.01672  -0.00024   0.00000  -0.00093  -0.00091  -0.01763
   D20        3.13338  -0.00007   0.00000   0.00214   0.00214   3.13552
   D21       -0.06169  -0.00202   0.00000  -0.02461  -0.02568  -0.08737
   D22       -3.11748   0.00096   0.00000   0.01871   0.01978  -3.09770
         Item               Value     Threshold  Converged?
 Maximum Force            0.100395     0.000450     NO 
 RMS     Force            0.014569     0.000300     NO 
 Maximum Displacement     0.413891     0.001800     NO 
 RMS     Displacement     0.131472     0.001200     NO 
 Predicted change in Energy=-5.236124D-02
 GradGradGradGradGradGradGradGradGradGradGradGradGradGradGradGradGradGrad

                          Input orientation:                          
 ---------------------------------------------------------------------
 Center     Atomic      Atomic             Coordinates (Angstroms)
 Number     Number       Type             X           Y           Z
 ---------------------------------------------------------------------
      1          7           0       -0.176158    0.011428    0.123458
      2          7           0        0.664826    1.089855    0.052340
      3          6           0        1.944322    0.588659   -0.036813
      4          6           0        1.804662   -0.772824   -0.035550
      5          7           0        0.496271   -1.157236    0.048870
      6          1           0        2.808878    1.230015   -0.100825
      7          1           0        2.587528   -1.514684   -0.102574
      8          1           0        0.294668    2.032555    0.064138
      9          6           0       -1.627282    0.176014    0.002829
     10          8           0       -2.175811   -0.999490    0.032494
     11          8           0       -2.078190    1.260139    0.016630
     12          1           0       -1.506911   -1.716890    0.047369
 ---------------------------------------------------------------------
                    Distance matrix (angstroms):
                    1          2          3          4          5
     1  N    0.000000
     2  N    1.369423   0.000000
     3  C    2.203478   1.377046   0.000000
     4  C    2.136348   2.185526   1.368627   0.000000
     5  N    1.350370   2.253407   2.269877   1.366305   0.000000
     6  H    3.231980   2.154080   1.078375   2.241444   3.327090
     7  H    3.165133   3.241050   2.200475   1.080614   2.126984
     8  H    2.076090   1.012836   2.194626   3.187502   3.196192
     9  C    1.465401   2.468060   3.595581   3.560900   2.507818
    10  O    2.242508   3.526326   4.416165   3.987502   2.676784
    11  O    2.277810   2.748529   4.078522   4.383173   3.531656
    12  H    2.182607   3.548843   4.151342   3.444510   2.079892
                    6          7          8          9         10
     6  H    0.000000
     7  H    2.753611   0.000000
     8  H    2.644340   4.227044   0.000000
     9  C    4.560831   4.542488   2.672900   0.000000
    10  O    5.462196   4.793022   3.911210   1.297526   0.000000
    11  O    4.888572   5.429805   2.495865   1.174239   2.261793
    12  H    5.228024   4.102170   4.159844   1.897250   0.980974
                   11         12
    11  O    0.000000
    12  H    3.031503   0.000000
 Stoichiometry    C3H4N3O2(2)
 Framework group  C1[X(C3H4N3O2)]
 Deg. of freedom    30
 Full point group                 C1      NOp   1
 Largest Abelian subgroup         C1      NOp   1
 Largest concise Abelian subgroup C1      NOp   1
                         Standard orientation:                         
 ---------------------------------------------------------------------
 Center     Atomic      Atomic             Coordinates (Angstroms)
 Number     Number       Type             X           Y           Z
 ---------------------------------------------------------------------
      1          7           0       -0.003563   -0.017142    0.098719
      2          7           0        0.807218    1.084806    0.038178
      3          6           0        2.101397    0.620239   -0.036215
      4          6           0        2.000473   -0.744661   -0.037442
      5          7           0        0.702630   -1.166163    0.031328
      6          1           0        2.948073    1.285954   -0.089645
      7          1           0        2.804834   -1.463922   -0.095703
      8          1           0        0.410311    2.016599    0.046201
      9          6           0       -1.457260    0.106275   -0.038886
     10          8           0       -1.972478   -1.084363   -0.016411
     11          8           0       -1.938920    1.177142   -0.029722
     12          1           0       -1.283685   -1.782487    0.005893
 ---------------------------------------------------------------------
 Rotational constants (GHZ):           5.0921487           1.7825650           1.3221412
 Standard basis: 6-31+G(d,p) (6D, 7F)
 There are   172 symmetry adapted cartesian basis functions of A   symmetry.
 There are   172 symmetry adapted basis functions of A   symmetry.
   172 basis functions,   284 primitive gaussians,   172 cartesian basis functions
    30 alpha electrons       29 beta electrons
       nuclear repulsion energy       374.2540874755 Hartrees.
 NAtoms=   12 NActive=   12 NUniq=   12 SFac= 1.00D+00 NAtFMM=   60 NAOKFM=F Big=F
 Integral buffers will be    131072 words long.
 Raffenetti 2 integral format.
 Two-electron integral symmetry is turned on.
 ------------------------------------------------------------------------------
 Polarizable Continuum Model (PCM)
 =================================
 Model                : PCM.
 Atomic radii         : SMD-Coulomb.
 Polarization charges : Total charges.
 Charge compensation  : None.
 Solution method      : On-the-fly selection.
 Cavity type          : VdW (van der Waals Surface) (Alpha=1.000).
 Cavity algorithm     : GePol (No added spheres)
                        Default sphere list used, NSphG=   12.
                        Lebedev-Laikov grids with approx.  5.0 points / Ang**2.
                        Smoothing algorithm: York/Karplus (Gamma=1.0000).
                        Polarization charges: spherical gaussians, with
                                              point-specific exponents (IZeta= 3).
                        Self-potential: point-specific (ISelfS= 7).
                        Self-field    : sphere-specific E.n sum rule (ISelfD= 2).
 1st derivatives      : Analytical E(r).r(x)/FMM algorithm (CHGder, D1EAlg=3).
                        Cavity 1st derivative terms included.
 Solvent              : Water, Eps=  78.355300 Eps(inf)=   1.777849
 ------------------------------------------------------------------------------
 Spheres list:
 ISph  on   Nord     Re0    Alpha      Xe            Ye            Ze
    1   N      1    1.8900  1.000     -0.003563     -0.017142      0.098719
    2   N      2    1.8900  1.000      0.807218      1.084806      0.038178
    3   C      3    1.8500  1.000      2.101397      0.620239     -0.036215
    4   C      4    1.8500  1.000      2.000473     -0.744661     -0.037442
    5   N      5    1.8900  1.000      0.702630     -1.166163      0.031328
    6   H      6    1.2000  1.000      2.948073      1.285954     -0.089645
    7   H      7    1.2000  1.000      2.804834     -1.463922     -0.095703
    8   H      8    1.2000  1.000      0.410311      2.016599      0.046201
    9   C      9    1.8500  1.000     -1.457260      0.106275     -0.038886
   10   O     10    1.5200  1.000     -1.972478     -1.084363     -0.016411
   11   O     11    1.5200  1.000     -1.938920      1.177142     -0.029722
   12   H     12    1.2000  1.000     -1.283685     -1.782487      0.005893
 ------------------------------------------------------------------------------
 ------------------------------------------------------------------------------
 Atomic radii for non-electrostatic terms: SMD-CDS.
 ------------------------------------------------------------------------------
 Nuclear repulsion after PCM non-electrostatic terms =      374.2618894910 Hartrees.
 One-electron integrals computed using PRISM.
 NBasis=   172 RedAO= T EigKep=  2.96D-05  NBF=   172
 NBsUse=   172 1.00D-06 EigRej= -1.00D+00 NBFU=   172
 Initial guess from the checkpoint file:  "/scratch/gongke2021/1-H-Tz-RC/Gau-1066.chk"
 B after Tr=    -0.000000    0.000000    0.000000
         Rot=    0.999999    0.000313    0.001004    0.000807 Ang=   0.15 deg.
 Initial guess <Sx>= 0.0000 <Sy>= 0.0000 <Sz>= 0.5000 <S**2>= 0.7617 S= 0.5058
 ExpMin= 4.38D-02 ExpMax= 5.48D+03 ExpMxC= 8.25D+02 IAcc=2 IRadAn=         4 AccDes= 0.00D+00
 Harris functional with IExCor= 1009 and IRadAn=       4 diagonalized for initial guess.
 HarFok:  IExCor= 1009 AccDes= 0.00D+00 IRadAn=         4 IDoV= 1 UseB2=F ITyADJ=14
 ICtDFT=  3500011 ScaDFX=  1.000000  1.000000  1.000000  1.000000
 FoFCou: FMM=F IPFlag=           0 FMFlag=      100000 FMFlg1=           0
         NFxFlg=           0 DoJE=T BraDBF=F KetDBF=T FulRan=T
         wScrn=  0.000000 ICntrl=       500 IOpCl=  0 I1Cent=   200000004 NGrid=           0
         NMat0=    1 NMatS0=      1 NMatT0=    0 NMatD0=    1 NMtDS0=    0 NMtDT0=    0
 Petite list used in FoFCou.
 Keep R1 and R2 ints in memory in canonical form, NReq=245384874.
 Requested convergence on RMS density matrix=1.00D-08 within 128 cycles.
 Requested convergence on MAX density matrix=1.00D-06.
 Requested convergence on             energy=1.00D-06.
 No special actions if energy rises.
 Inv3:  Mode=1 IEnd=     3195072.
 Iteration    1 A*A^-1 deviation from unit magnitude is 2.66D-15 for    587.
 Iteration    1 A*A^-1 deviation from orthogonality  is 2.25D-15 for    557    270.
 Iteration    1 A^-1*A deviation from unit magnitude is 2.44D-15 for    254.
 Iteration    1 A^-1*A deviation from orthogonality  is 1.05D-15 for    641    361.
 Error on total polarization charges =  0.03849
 SCF Done:  E(UM062X) =  -431.204629466     A.U. after   17 cycles
            NFock= 17  Conv=0.59D-08     -V/T= 2.0081
 <Sx>= 0.0000 <Sy>= 0.0000 <Sz>= 0.5000 <S**2>= 0.7621 S= 0.5060
 <L.S>=  0.00000000000    
 SMD-CDS (non-electrostatic) energy       (kcal/mol) =       4.90
 (included in total energy above)
 Annihilation of the first spin contaminant:
 S**2 before annihilation     0.7621,   after     0.7501
 D1PCM: PCM CHGder 1st derivatives, ID1Alg=3 FixD1E=F DoIter=F DoCFld=F I1PDM=0.
 Calling FoFJK, ICntrl=      2127 FMM=F ISym2X=0 I1Cent= 0 IOpClX= 1 NMat=1 NMatS=1 NMatT=0.
 ***** Axes restored to original set *****
 -------------------------------------------------------------------
 Center     Atomic                   Forces (Hartrees/Bohr)
 Number     Number              X              Y              Z
 -------------------------------------------------------------------
      1        7          -0.042079749    0.020794447   -0.003042904
      2        7           0.004053757    0.002269358   -0.000915873
      3        6          -0.005965611    0.000631895   -0.000356716
      4        6           0.000484869   -0.005519516   -0.000749376
      5        7           0.009035697   -0.005642147   -0.001187990
      6        1          -0.000648341   -0.000109853    0.000341401
      7        1          -0.000860089    0.000195135    0.000429875
      8        1           0.000945944   -0.000276171    0.000361271
      9        6           0.109936726   -0.051601038    0.013894416
     10        8          -0.031589353   -0.020851220   -0.003246259
     11        8          -0.041937435    0.057025296   -0.004543946
     12        1          -0.001376415    0.003083815   -0.000983901
 -------------------------------------------------------------------
 Cartesian Forces:  Max     0.109936726 RMS     0.025738175

 GradGradGradGradGradGradGradGradGradGradGradGradGradGradGradGradGradGrad
 Berny optimization.
 Using GEDIIS/GDIIS optimizer.
 FormGI is forming the generalized inverse of G from B-inverse, IUseBI=4.
 Internal  Forces:  Max     0.068704606 RMS     0.013087827
 Search for a local minimum.
 Step number   3 out of a maximum of   61
 All quantities printed in internal units (Hartrees-Bohrs-Radians)
 Mixed Optimization -- RFO/linear search
 Update second derivatives using D2CorX and points    2    3
 DE= -3.70D-02 DEPred=-5.24D-02 R= 7.07D-01
 TightC=F SS=  1.41D+00  RLast= 5.10D-01 DXNew= 8.4853D-01 1.5300D+00
 Trust test= 7.07D-01 RLast= 5.10D-01 DXMaxT set to 8.49D-01
 ITU=  1  1  0
 Use linear search instead of GDIIS.
     Eigenvalues ---    0.00230   0.01186   0.01748   0.01893   0.02226
     Eigenvalues ---    0.02230   0.02385   0.02561   0.03626   0.13902
     Eigenvalues ---    0.15984   0.15998   0.15999   0.17108   0.22222
     Eigenvalues ---    0.24188   0.24250   0.25818   0.31022   0.36130
     Eigenvalues ---    0.36426   0.43948   0.45952   0.46095   0.50454
     Eigenvalues ---    0.51619   0.52779   0.54026   0.64935   1.88048
 RFO step:  Lambda=-1.34981575D-02 EMin= 2.29997341D-03
 Quartic linear search produced a step of  0.10370.
 Iteration  1 RMS(Cart)=  0.05466816 RMS(Int)=  0.00407332
 Iteration  2 RMS(Cart)=  0.00373547 RMS(Int)=  0.00135209
 Iteration  3 RMS(Cart)=  0.00001691 RMS(Int)=  0.00135197
 Iteration  4 RMS(Cart)=  0.00000002 RMS(Int)=  0.00135197
 Variable       Old X    -DE/DX   Delta X   Delta X   Delta X     New X
                                 (Linear)    (Quad)   (Total)
    R1        2.58783   0.00107  -0.00025   0.00241   0.00282   2.59065
    R2        2.55183   0.00982  -0.00179   0.01388   0.01262   2.56445
    R3        2.76921  -0.03650  -0.05078  -0.14431  -0.19509   2.57412
    R4        2.60224  -0.00209   0.00039  -0.00500  -0.00471   2.59752
    R5        1.91398  -0.00060   0.00044  -0.00093  -0.00049   1.91349
    R6        2.58633   0.00231  -0.00085  -0.00036  -0.00193   2.58440
    R7        2.03783  -0.00061   0.00022  -0.00037  -0.00015   2.03769
    R8        2.58194  -0.00445   0.00179  -0.00604  -0.00461   2.57733
    R9        2.04207  -0.00078   0.00020  -0.00085  -0.00065   2.04141
   R10        2.45197   0.02993  -0.00469   0.04781   0.04312   2.49509
   R11        2.21899   0.06870  -0.00461   0.05656   0.05195   2.27094
   R12        1.85377  -0.00321   0.00100  -0.00562  -0.00462   1.84915
    A1        1.95289  -0.00210   0.00038  -0.02191  -0.02332   1.92957
    A2        2.11228   0.00455   0.00021  -0.00417  -0.00829   2.10399
    A3        2.19662  -0.00258  -0.00117  -0.00309  -0.00877   2.18785
    A4        1.86225  -0.00141   0.00024   0.01097   0.01217   1.87443
    A5        2.10357   0.00143   0.00178   0.00295   0.00396   2.10753
    A6        2.31732  -0.00003  -0.00202  -0.01418  -0.01691   2.30041
    A7        1.84127   0.00432  -0.00040   0.00434   0.00379   1.84507
    A8        2.13212  -0.00247   0.00014  -0.00298  -0.00282   2.12930
    A9        2.30973  -0.00185   0.00025  -0.00151  -0.00123   2.30851
   A10        1.95806  -0.00203  -0.00001  -0.01031  -0.01064   1.94742
   A11        2.22553   0.00150  -0.00029   0.00449   0.00430   2.22983
   A12        2.09952   0.00053   0.00030   0.00564   0.00603   2.10556
   A13        1.80984   0.00122  -0.00021   0.01718   0.01820   1.82804
   A14        1.89125   0.02331  -0.00485   0.07664   0.06929   1.96053
   A15        2.07486   0.00754  -0.00313   0.00548  -0.00058   2.07428
   A16        2.31017  -0.03001   0.00759  -0.09654  -0.09093   2.21925
   A17        1.95479  -0.00206   0.00247   0.01334   0.01581   1.97060
    D1       -0.02849   0.00007   0.00005   0.01134   0.01173  -0.01676
    D2        3.10522   0.00002  -0.00052  -0.01832  -0.01890   3.08632
    D3       -2.96167   0.00110   0.00313   0.15188   0.15463  -2.80704
    D4        0.17203   0.00105   0.00255   0.12222   0.12400   0.29603
    D5        0.02813  -0.00002   0.00002  -0.00614  -0.00648   0.02165
    D6        2.94918  -0.00008  -0.00306  -0.15518  -0.15781   2.79137
    D7        3.08249  -0.00288   0.00001  -0.03087  -0.02953   3.05295
    D8       -0.16978   0.00165  -0.00334  -0.15276  -0.15747  -0.32725
    D9        0.18004  -0.00194   0.00334   0.13275   0.13746   0.31750
   D10       -3.07222   0.00259  -0.00001   0.01087   0.00953  -3.06270
   D11        0.01593   0.00005  -0.00012  -0.01101  -0.01142   0.00451
   D12       -3.13619   0.00017  -0.00043  -0.02417  -0.02471   3.12228
   D13       -3.11641   0.00010   0.00054   0.02366   0.02374  -3.09267
   D14        0.01466   0.00022   0.00023   0.01050   0.01044   0.02510
   D15        0.00109  -0.00003   0.00013   0.00804   0.00807   0.00917
[...]
   D13        2.41778  -0.00001   0.00000  -0.00152  -0.00152   2.41627
   D14       -0.75760  -0.00002   0.00000  -0.00264  -0.00264  -0.76024
   D15       -0.05785   0.00001   0.00000  -0.00001  -0.00001  -0.05786
   D16        3.07753   0.00001   0.00000   0.00034   0.00034   3.07787
   D17        3.12257   0.00001   0.00000   0.00131   0.00131   3.12387
   D18       -0.02523   0.00002   0.00000   0.00165   0.00165  -0.02358
   D19       -0.01985  -0.00001   0.00000  -0.00016  -0.00016  -0.02001
   D20        3.12740  -0.00002   0.00000  -0.00047  -0.00047   3.12693
   D21       -0.06226   0.00000   0.00000  -0.00032  -0.00032  -0.06257
   D22        3.11125  -0.00004   0.00000  -0.00105  -0.00105   3.11020
         Item               Value     Threshold  Converged?
 Maximum Force            0.000308     0.000450     YES
 RMS     Force            0.000063     0.000300     YES
 Maximum Displacement     0.002453     0.001800     NO 
 RMS     Displacement     0.000710     0.001200     YES
 Predicted change in Energy=-4.619697D-07
                           ----------------------------
                           ! Non-Optimized Parameters !
                           ! (Angstroms and Degrees)  !
 --------------------------                            --------------------------
 ! Name  Definition              Value          Derivative Info.                !
 --------------------------------------------------------------------------------
 ! R1    R(1,2)                  1.3881         -DE/DX =    0.0                 !
 ! R2    R(1,5)                  1.3664         -DE/DX =   -0.0003              !
 ! R3    R(1,9)                  1.3654         -DE/DX =   -0.0002              !
 ! R4    R(2,3)                  1.386          -DE/DX =    0.0001              !
 ! R5    R(2,8)                  1.0203         -DE/DX =    0.0                 !
 ! R6    R(3,4)                  1.3712         -DE/DX =   -0.0001              !
 ! R7    R(3,6)                  1.0782         -DE/DX =    0.0                 !
 ! R8    R(4,5)                  1.3528         -DE/DX =    0.0001              !
 ! R9    R(4,7)                  1.0798         -DE/DX =    0.0                 !
 ! R10   R(9,10)                 1.3361         -DE/DX =   -0.0001              !
 ! R11   R(9,11)                 1.2228         -DE/DX =    0.0                 !
 ! R12   R(10,12)                0.9755         -DE/DX =    0.0                 !
 ! A1    A(2,1,5)              112.4084         -DE/DX =    0.0                 !
 ! A2    A(2,1,9)              121.8446         -DE/DX =    0.0                 !
 ! A3    A(5,1,9)              124.5821         -DE/DX =    0.0                 !
 ! A4    A(1,2,3)              104.2025         -DE/DX =    0.0                 !
 ! A5    A(1,2,8)              114.9226         -DE/DX =    0.0                 !
 ! A6    A(3,2,8)              122.1422         -DE/DX =    0.0                 !
 ! A7    A(2,3,4)              107.2781         -DE/DX =    0.0                 !
 ! A8    A(2,3,6)              120.9392         -DE/DX =    0.0                 !
 ! A9    A(4,3,6)              131.7444         -DE/DX =    0.0                 !
 ! A10   A(3,4,5)              111.8728         -DE/DX =    0.0                 !
 ! A11   A(3,4,7)              127.9753         -DE/DX =    0.0                 !
 ! A12   A(5,4,7)              120.151          -DE/DX =    0.0                 !
 ! A13   A(1,5,4)              103.7427         -DE/DX =    0.0001              !
 ! A14   A(1,9,10)             114.9214         -DE/DX =    0.0                 !
 ! A15   A(1,9,11)             122.3817         -DE/DX =    0.0                 !
 ! A16   A(10,9,11)            122.6717         -DE/DX =    0.0                 !
 ! A17   A(9,10,12)            111.3182         -DE/DX =    0.0                 !
 ! D1    D(5,1,2,3)             -7.325          -DE/DX =    0.0                 !
 ! D2    D(5,1,2,8)           -143.6069         -DE/DX =    0.0                 !
 ! D3    D(9,1,2,3)           -175.5162         -DE/DX =    0.0                 !
 ! D4    D(9,1,2,8)             48.2018         -DE/DX =    0.0                 !
 ! D5    D(2,1,5,4)              5.3416         -DE/DX =    0.0                 !
 ! D6    D(9,1,5,4)            173.1518         -DE/DX =    0.0                 !
 ! D7    D(2,1,9,10)           173.821          -DE/DX =    0.0                 !
 ! D8    D(2,1,9,11)            -7.9597         -DE/DX =    0.0                 !
 ! D9    D(5,1,9,10)             7.106          -DE/DX =    0.0                 !
 ! D10   D(5,1,9,11)          -174.6747         -DE/DX =    0.0                 !
 ! D11   D(1,2,3,4)              6.1906         -DE/DX =    0.0                 !
 ! D12   D(1,2,3,6)           -175.81           -DE/DX =    0.0                 !
 ! D13   D(8,2,3,4)            138.4419         -DE/DX =    0.0                 !
 ! D14   D(8,2,3,6)            -43.5587         -DE/DX =    0.0                 !
 ! D15   D(2,3,4,5)             -3.3151         -DE/DX =    0.0                 !
 ! D16   D(2,3,4,7)            176.349          -DE/DX =    0.0                 !
 ! D17   D(6,3,4,5)            178.9848         -DE/DX =    0.0                 !
 ! D18   D(6,3,4,7)             -1.351          -DE/DX =    0.0                 !
 ! D19   D(3,4,5,1)             -1.1463         -DE/DX =    0.0                 !
 ! D20   D(7,4,5,1)            179.1599         -DE/DX =    0.0                 !
 ! D21   D(1,9,10,12)           -3.5851         -DE/DX =    0.0                 !
 ! D22   D(11,9,10,12)         178.2013         -DE/DX =    0.0                 !
 --------------------------------------------------------------------------------
 GradGradGradGradGradGradGradGradGradGradGradGradGradGradGradGradGradGrad


 ----------------------------------------------------------------------

 Electric dipole moment (input orientation):
 (Debye = 10**-18 statcoulomb cm , SI units = C m)
                  (au)            (Debye)         (10**-30 SI)
   Tot        0.285132D+01      0.724734D+01      0.241745D+02
   x          0.281116D+01      0.714526D+01      0.238340D+02
   y         -0.156380D+00     -0.397479D+00     -0.132585D+01
   z          0.450523D+00      0.114511D+01      0.381969D+01

 Dipole polarizability, Alpha (input orientation).
 (esu units = cm**3 , SI units = C**2 m**2 J**-1)
 Alpha(0;0):
               (au)            (10**-24 esu)      (10**-40 SI)
   iso        0.934829D+02      0.138527D+02      0.154132D+02
   aniso      0.692213D+02      0.102575D+02      0.114131D+02
   xx         0.128487D+03      0.190398D+02      0.211846D+02
   yx        -0.507228D+01     -0.751634D+00     -0.836305D+00
   yy         0.101349D+03      0.150184D+02      0.167102D+02
   zx        -0.355890D+00     -0.527374D-01     -0.586783D-01
   zy        -0.297710D+01     -0.441160D+00     -0.490857D+00
   zz         0.506131D+02      0.750009D+01      0.834497D+01

 ----------------------------------------------------------------------

 Dipole orientation:
     7         -0.15516927          0.07480587         -0.32576610
     7          0.54616060          2.19100693          1.05586305
     6          0.81183458          1.30161107          3.50456962
     6          0.53111058         -1.27342309          3.42259108
     7         -0.03835871         -2.09544634          1.07044312
     1          1.22941893          2.57210699          5.04166419
     1          0.72124638         -2.60582442          4.95624977
     1         -0.44437578          3.79390785          0.64743275
     6         -0.43076350          0.15273569         -2.89053759
     8         -0.87229179         -2.08121136         -3.98132378
     8         -0.34466880          2.12893362         -4.08500223
     1         -0.82176451         -3.45072071         -2.74832464

 Electric dipole moment (dipole orientation):
 (Debye = 10**-18 statcoulomb cm , SI units = C m)
                  (au)            (Debye)         (10**-30 SI)
   Tot        0.285132D+01      0.724734D+01      0.241745D+02
   x          0.000000D+00      0.000000D+00      0.000000D+00
   y          0.000000D+00      0.000000D+00      0.000000D+00
   z          0.285132D+01      0.724734D+01      0.241745D+02

 Dipole polarizability, Alpha (dipole orientation).
 (esu units = cm**3 , SI units = C**2 m**2 J**-1)
 Alpha(0;0):
               (au)            (10**-24 esu)      (10**-40 SI)
   iso        0.934829D+02      0.138527D+02      0.154132D+02
   aniso      0.692213D+02      0.102575D+02      0.114131D+02
   xx         0.530431D+02      0.786017D+01      0.874562D+01
   yx         0.505651D+01      0.749298D+00      0.833706D+00
   yy         0.100455D+03      0.148860D+02      0.165629D+02
   zx         0.121657D+02      0.180277D+01      0.200585D+01
   zy        -0.464727D+01     -0.688654D+00     -0.766231D+00
   zz         0.126950D+03      0.188121D+02      0.209313D+02

 ----------------------------------------------------------------------
 1\1\GINC-NODE4\Freq\UM062X\6-31+G(d,p)\C3H4N3O2(2)\GONGKE2021\13-Nov-2
 023\0\\#N Geom=AllCheck Guess=TCheck SCRF=Check GenChk UM062X/6-31+G(d
 ,p) Freq\\Title Card Required\\0,2\N,-0.1812987063,0.045103157,0.05588
 83641\N,0.651423773,1.1392707572,-0.1330725502\C,1.9295731803,0.605342
 0452,-0.0927509841\C,1.7993171292,-0.7583251666,-0.0278794456\N,0.5034
 374575,-1.1379970457,0.0486996844\H,2.798393865,1.2416209709,-0.145221
 001\H,2.5826985303,-1.5013827626,-0.0375144698\H,0.3937604432,1.972664
 0957,0.3960838408\C,-1.5408959749,0.1538613199,-0.0125129388\O,-2.2027
 08601,-1.0044743592,0.061804257\O,-2.1079279785,1.2336977122,-0.099948
 2515\H,-1.5889701177,-1.7618414041,0.0987903749\\Version=ES64L-G16RevA
 .03\State=2-A\HF=-431.2204036\S2=0.764374\S2-1=0.\S2A=0.75008\RMSD=2.1
 06e-09\RMSF=1.095e-04\ZeroPoint=0.084747\Thermal=0.0913787\Dipole=2.81
 11601,-0.1563803,0.4505226\DipoleDeriv=-2.0264448,0.2069019,-0.0048465
 ,0.4078901,0.0074889,-0.0876845,-0.1147784,-0.0357515,-0.0775721,-0.02
 14878,0.6070289,-0.131479,-0.0477944,-0.9880869,0.1241151,0.0406578,0.
 3786022,-0.2001528,-0.1228422,-0.4725409,0.0801797,0.095723,0.0878242,
 -0.1002046,-0.0821657,-0.1470055,-0.1775143,0.1468397,0.406958,-0.0022
 14,-0.2625511,0.5257322,0.011745,-0.0355822,-0.0627404,-0.0704758,-0.2
 449395,-0.5657121,-0.027213,-0.1882728,-0.606022,0.0754532,0.0451729,0
 .0012841,-0.2955308,0.1591356,0.011625,0.0004669,0.0017821,0.1562213,0
 .0067801,0.0282528,0.0311156,0.2664471,0.1143967,0.0277484,0.0035923,0
 .04878,0.1393129,0.0013564,0.0154949,0.0072328,0.2169135,0.2812091,-0.
 0701063,0.0323163,-0.0253707,0.5424079,-0.0016923,0.0029326,-0.1531858
 ,0.402139,4.0974301,-0.2763693,0.07351,-0.7145074,2.8567815,-0.1781275
 ,0.1584529,-0.1646279,0.6214761,-1.1143801,-0.3993512,0.0236367,-0.782
 4572,-1.6153866,0.0686792,0.0666621,0.0751088,-0.5362577,-1.7445172,0.
 4853174,-0.0426705,1.4015628,-1.6717619,0.0853623,-0.1105577,0.0782588
 ,-0.6126205,0.4756004,0.0385001,-0.0052788,0.0652156,0.5654888,-0.0057
 824,-0.0145421,-0.0082912,0.4631482\Polar=128.4866996,-5.072276,101.34
 88876,-0.3558898,-2.9770956,50.6131117\Quadrupole=-1.5321815,2.7504894
 ,-1.2183078,5.9362576,-0.2339482,1.7537254\PG=C01 [X(C3H4N3O2)]\NImag=
 0\\0.88727140,-0.01177092,0.62635274,-0.02291802,-0.02759435,0.0630406
 7,-0.16041094,-0.08122299,0.03633392,0.59198069,-0.05527975,-0.2072527
 5,0.01515195,-0.10214971,0.73515387,0.02809875,0.00056426,-0.03317558,
 -0.09407348,0.18800670,0.18476343,-0.08968063,-0.02427634,-0.00015991,
 -0.27716339,0.06150144,0.01012995,0.73977474,-0.00220278,-0.00651626,-
 0.00099569,0.08752506,-0.14751619,-0.01719116,0.15072229,0.76931957,0.
 00903829,0.00689623,-0.00175651,-0.01958740,-0.00639074,-0.03915489,-0
 .02528392,-0.02618400,0.10410434,-0.09753194,0.04404774,0.00418154,-0.
 01900317,0.03304858,0.00104472,-0.08712082,0.01350814,-0.00038502,0.69
 784434,0.02147435,-0.00978437,0.00154682,0.05353168,-0.04108243,-0.000
 22572,-0.00818655,-0.39142915,0.01268226,-0.18402133,0.78895410,0.0046
 5813,-0.00200902,0.00500883,-0.00188840,0.00464999,0.01372470,0.001481
 62,0.01413125,-0.06303560,-0.02314553,-0.02093756,0.12721901,-0.124615
 65,0.09120633,-0.00098631,-0.00590279,0.00128546,-0.00197390,-0.042544
 57,-0.11030296,0.00836700,-0.28312107,-0.05068797,0.01559566,0.5103555
 4,0.02290558,-0.22252722,0.00617314,0.00608749,-0.07008520,0.00133257,
 -0.05031736,-0.03195187,0.00070081,-0.04342224,-0.12172227,0.00367920,
 0.03787244,0.43017970,0.00589412,-0.00337605,-0.03204428,-0.00055145,0
 .00617907,-0.00229696,0.00538274,0.00596723,0.02432929,0.01463640,0.00
 555904,-0.05174880,-0.02225957,-0.01370581,0.06632908,-0.00277600,0.00
 282548,-0.00053442,-0.01566541,-0.01736434,0.00141661,-0.26238618,-0.1
 4949680,0.01199308,0.00695170,0.00164682,0.00003331,0.00215126,0.00338
 224,-0.00017509,0.27230844,0.00606395,-0.00263183,0.00033360,0.0143750
 9,0.01423394,-0.00094844,-0.15878556,-0.17324510,0.01136496,-0.0216840
 4,-0.00227472,0.00095873,-0.00034468,-0.00419963,0.00056461,0.16056593
 ,0.16648091,0.00147911,-0.00006328,0.00299885,-0.00287602,-0.00059106,
 -0.00242257,0.01573336,0.01006786,-0.02436792,0.00060271,0.00076749,0.
 00126646,-0.00016860,0.00123037,0.00604687,-0.01323240,-0.01173507,0.0
 1887435,-0.00594250,-0.00201576,0.00021755,0.00031905,-0.00354636,0.00
 015954,0.00979141,-0.00505059,0.00013512,-0.21660255,0.15389909,0.0031
 9576,-0.01608750,0.02018206,0.00000389,-0.00030740,0.00051554,-0.00013
 732,0.22793253,-0.00559256,0.00075266,0.00042276,-0.00149060,-0.004430
 97,-0.00086437,0.02048391,-0.00599965,-0.00014363,0.15912815,-0.214152
 63,-0.00024003,-0.00728738,0.01255715,-0.00032678,-0.00047019,0.000327
 87,-0.00015031,-0.16565462,0.20967445,0.00041595,-0.00036784,0.0069851
 7,0.00229100,0.00102319,0.00673883,-0.00140927,0.00112732,0.00164043,0
 .00362757,-0.00044265,-0.03457742,-0.00007433,-0.00127765,-0.00467357,
 -0.00004128,-0.00016470,-0.00267741,-0.00389941,0.00057038,0.02540048,
 0.00760137,-0.02328373,-0.01593340,-0.08267227,0.07600015,0.06221861,0
 .00099247,0.02461523,0.01509877,-0.00701234,0.00181613,0.00076792,-0.0
 0258477,-0.00270604,0.00083465,0.00017982,-0.00077656,-0.00092620,0.00
 061862,0.00085258,-0.00111726,0.08097439,0.00518147,-0.02225188,-0.006
 89103,0.06503450,-0.28869668,-0.16604257,0.00771639,-0.00472215,0.0000
 5203,-0.00077051,0.00131355,-0.00095563,-0.00173732,0.00001766,-0.0022
 0511,0.00018518,-0.00012720,0.00049792,0.00007783,0.00009295,-0.000234
 41,-0.07492581,0.31533651,-0.00926043,0.01366170,0.00235095,0.07394680
 ,-0.20756301,-0.12532738,-0.00544236,0.01144433,-0.00157111,-0.0004235
 0,0.00177489,0.00103937,0.00060573,0.00366966,-0.00052908,0.00021358,-
 0.00021809,-0.00040278,0.00020699,0.00075007,0.00047947,-0.06147545,0.
 17629368,0.12357219,-0.29952805,-0.00437237,0.00953325,-0.03398153,0.0
 0412925,-0.01064609,0.01428871,-0.01260839,0.00229425,0.01253685,0.011
 36391,-0.00055788,-0.03077658,0.01387098,-0.00513374,0.00011524,-0.000
 85153,-0.00085071,0.00135716,0.00034105,-0.00008682,0.00298076,-0.0033
 6262,0.00199281,0.68794564,-0.00265598,-0.11822720,0.00168669,-0.03361
 221,-0.00074566,0.00075894,-0.00574271,-0.00582538,0.00021594,0.001954
 43,-0.01207531,0.00020872,0.02819480,0.01241366,0.00206741,-0.00107132
 ,0.00126123,0.00024682,0.00115190,0.00099108,-0.00015948,-0.00458191,-
 0.00053494,-0.00221842,-0.13995020,0.88182837,-0.00671870,0.00832367,-
 0.04160075,0.00671197,-0.00207724,-0.00560887,-0.00011627,0.00160800,-
 0.00150715,-0.00006530,-0.00108518,0.00104027,0.00224566,-0.00099580,-
 0.00783966,0.00036441,-0.00019558,0.00061659,0.00025274,0.00003843,0.0
 0131269,-0.00063149,-0.00083968,0.00154013,0.01251030,-0.05012492,0.18
 534891,-0.04988732,-0.04939612,0.00176605,-0.00464085,0.00325547,-0.00
 007477,-0.00349246,-0.00192912,-0.00021934,-0.00059888,-0.00393739,-0.
 00008234,-0.00266957,-0.00121512,0.00089560,-0.00042076,0.00047445,0.0
 0013353,-0.00017893,0.00006728,0.00006072,-0.00105221,0.00080126,-0.00
 002148,-0.16931144,-0.05066737,0.00218437,0.43618982,-0.03283556,-0.01
 576215,-0.00457501,0.00024878,-0.00397404,0.00408224,-0.00214285,0.002
 19156,-0.00085224,-0.00283151,-0.00129199,-0.00002189,0.00705260,0.004
 90932,0.00094677,-0.00021348,0.00050670,0.00020836,-0.00021645,-0.0000
 0189,0.00006092,-0.00061013,0.00162424,-0.00070857,-0.09431031,-0.2181
 9238,0.01199669,-0.10563454,0.62562557,-0.00237042,-0.00223129,0.01143
 498,-0.00055046,0.00315458,0.00498134,0.00049917,-0.00038453,0.0010367
 9,0.00006871,0.00017495,0.00006550,-0.00076045,-0.00035358,-0.00174179
 ,-0.00006049,0.00001142,-0.00002599,0.00001757,0.00000443,-0.00007100,
 0.00090788,0.00033326,-0.00021737,0.00762770,0.01065980,-0.05175999,0.
 00513240,-0.03338427,0.03241678,-0.05955442,0.06544350,-0.01090839,0.0
 0734838,-0.00255458,0.00378865,-0.00407293,0.00406766,-0.00148351,-0.0
 0338631,0.00162750,-0.00023895,-0.00506405,-0.00362380,0.00048824,0.00
 001742,0.00018930,0.00027200,-0.00090215,-0.00037900,0.00023583,-0.000
 19355,0.00189408,-0.00034962,-0.20899628,0.22187766,-0.01782334,0.0286
 3616,-0.00953496,0.00114482,0.24844374,0.05320315,-0.02187154,0.014813
 78,-0.00905399,0.01494283,-0.00933710,0.00777753,-0.00476107,0.0015944
 3,0.00086367,0.00295045,0.00047857,0.00544659,-0.00897505,-0.00135259,
 -0.00008811,-0.00027792,-0.00044023,0.00051864,0.00017824,-0.00010683,
 0.00340309,-0.00177326,0.00310461,0.20678527,-0.49994555,0.03074634,0.
 01442126,-0.09832232,0.00757963,-0.27501543,0.61752724,-0.00809493,0.0
 0617971,0.01514124,0.00023088,-0.00117653,-0.00160201,-0.00066324,0.00
 040537,0.00022972,-0.00021810,0.00018277,0.00067182,-0.00056656,-0.000
 50471,0.00577607,0.00001201,0.00002129,-0.00001146,-0.00013837,-0.0000
 5927,-0.00049206,0.00029221,0.00008632,-0.00089952,-0.01525516,0.03451
 386,-0.07592281,-0.00083752,0.00798852,0.01240895,0.02454635,-0.047800
 78,0.03914004,-0.00494532,-0.00718481,-0.00059185,-0.00020777,0.001674
 40,-0.00008860,0.00161366,0.00115225,0.00003268,-0.00295581,0.00147376
 ,0.00018069,0.00085976,-0.00301623,-0.00001580,-0.00016813,0.00025811,
 -0.00002947,0.00000227,0.00000137,-0.00000270,0.00016771,-0.00009444,0
 .00000694,0.02336951,-0.01489710,0.00108565,-0.23257357,0.24102840,-0.
 01165644,-0.00227602,-0.00826167,0.00069244,0.21711371,0.00150905,-0.0
 0028019,-0.00007266,0.00072690,-0.00054672,-0.00013536,0.00124980,0.00
 045570,0.00006395,0.00017892,0.00059478,0.00005766,-0.00069790,-0.0006
 1626,-0.00031779,0.00009859,-0.00005423,-0.00003888,0.00013872,0.00001
 074,-0.00002823,0.00019700,-0.00027881,0.00000915,0.01896495,-0.040947
 90,0.00260528,0.19375994,-0.29731262,0.01443560,-0.00399192,0.00032795
 ,0.00016345,-0.21213404,0.33864756,-0.00022185,0.00001625,0.00161643,0
 .00001264,-0.00036689,-0.00062003,-0.00015188,0.00000403,0.00005260,0.
 00007581,0.00000287,-0.00067413,-0.00002433,0.00005181,-0.00160719,0.0
 0001068,0.00000726,0.00010502,-0.00001406,-0.00000169,-0.00006562,-0.0
 0003623,-0.00009479,-0.00003487,-0.00142791,0.00214463,-0.00561936,-0.
 00893724,0.01425849,-0.00852819,0.00032792,0.00072018,0.00556001,0.010
 38645,-0.01674216,0.00981533\\0.00010131,0.00032664,-0.00000332,0.0000
 6038,-0.00008046,0.00006082,-0.00005511,0.00017626,-0.00005942,-0.0001
 9638,-0.00014015,0.00001791,0.00025668,-0.00029604,0.00002197,0.000015
 21,-0.00003076,0.00002673,0.00001343,-0.00000306,-0.00003726,0.0000158
 3,-0.00000118,-0.00002547,-0.00017474,0.00005476,-0.00008623,-0.000025
 90,-0.00003570,0.00002010,0.00000426,0.00001716,0.00004197,-0.00001499
 ,0.00001254,0.00002221\\\@


 IF I HAVE SEEN FARTHER, IT IS BY STANDING ON THE
 SHOULDERS OF GIANTS. -- SIR ISAAC NEWTON
 Job cpu time:       0 days  0 hours 25 minutes 28.4 seconds.
 Elapsed time:       0 days  0 hours  1 minutes  4.7 seconds.
 File lengths (MBytes):  RWF=    102 Int=      0 D2E=      0 Chk=      8 Scr=      1
 Normal termination of Gaussian 16 at Mon Nov 13 02:48:26 2023.
