 Entering Gaussian System, Link 0=/opt/soft/g16/g16
 Initial command:
 /opt/soft/g16/l1.exe "/scratch/gongke2021/OH-/Gau-23655.inp" -scrdir="/scratch/gongke2021/OH-/"
 Entering Link 1 = /opt/soft/g16/l1.exe PID=     23656.
  
 Copyright (c) 1988,1990,1992,1993,1995,1998,2003,2009,2016,
            Gaussian, Inc.  All Rights Reserved.
  
 This is part of the Gaussian(R) 16 program.  It is based on
 the Gaussian(R) 09 system (copyright 2009, Gaussian, Inc.),
 the Gaussian(R) 03 system (copyright 2003, Gaussian, Inc.),
 the Gaussian(R) 98 system (copyright 1998, Gaussian, Inc.),
 the Gaussian(R) 94 system (copyright 1995, Gaussian, Inc.),
 the Gaussian 92(TM) system (copyright 1992, Gaussian, Inc.),
 the Gaussian 90(TM) system (copyright 1990, Gaussian, Inc.),
 the Gaussian 88(TM) system (copyright 1988, Gaussian, Inc.),
 the Gaussian 86(TM) system (copyright 1986, Carnegie Mellon
 University), and the Gaussian 82(TM) system (copyright 1983,
 Carnegie Mellon University). Gaussian is a federally registered
 trademark of Gaussian, Inc.
  
 This software contains proprietary and confidential information,
 including trade secrets, belonging to Gaussian, Inc.
  
 This software is provided under written license and may be
 used, copied, transmitted, or stored only in accord with that
 written license.
  
 The following legend is applicable only to US Government
 contracts under FAR:
  
                    RESTRICTED RIGHTS LEGEND
  
 Use, reproduction and disclosure by the US Government is
 subject to restrictions as set forth in subparagraphs (a)
 and (c) of the Commercial Computer Software - Restricted
 Rights clause in FAR 52.227-19.
  
 Gaussian, Inc.
 340 Quinnipiac St., Bldg. 40, Wallingford CT 06492
  
  
 ---------------------------------------------------------------
 Warning -- This program may not be used in any manner that
 competes with the business of Gaussian, Inc. or will provide
 assistance to any competitor of Gaussian, Inc.  The licensee
 of this program is prohibited from giving any competitor of
 Gaussian, Inc. access to this program.  By using this program,
 the user acknowledges that Gaussian, Inc. is engaged in the
 business of creating and licensing software in the field of
 computational chemistry and represents and warrants to the
 licensee that it is not a competitor of Gaussian, Inc. and that
 it will not use this program in any manner prohibited above.
 ---------------------------------------------------------------
  

 Cite this work as:
 Gaussian 16, Revision A.03,
 M. J. Frisch, G. W. Trucks, H. B. Schlegel, G. E. Scuseria, 
 M. A. Robb, J. R. Cheeseman, G. Scalmani, V. Barone, 
 G. A. Petersson, H. Nakatsuji, X. Li, M. Caricato, A. V. Marenich, 
 J. Bloino, B. G. Janesko, R. Gomperts, B. Mennucci, H. P. Hratchian, 
 J. V. Ortiz, A. F. Izmaylov, J. L. Sonnenberg, D. Williams-Young, 
 F. Ding, F. Lipparini, F. Egidi, J. Goings, B. Peng, A. Petrone, 
 T. Henderson, D. Ranasinghe, V. G. Zakrzewski, J. Gao, N. Rega, 
 G. Zheng, W. Liang, M. Hada, M. Ehara, K. Toyota, R. Fukuda, 
 J. Hasegawa, M. Ishida, T. Nakajima, Y. Honda, O. Kitao, H. Nakai, 
 T. Vreven, K. Throssell, J. A. Montgomery, Jr., J. E. Peralta, 
 F. Ogliaro, M. J. Bearpark, J. J. Heyd, E. N. Brothers, K. N. Kudin, 
 V. N. Staroverov, T. A. Keith, R. Kobayashi, J. Normand, 
 K. Raghavachari, A. P. Rendell, J. C. Burant, S. S. Iyengar, 
 J. Tomasi, M. Cossi, J. M. Millam, M. Klene, C. Adamo, R. Cammi, 
 J. W. Ochterski, R. L. Martin, K. Morokuma, O. Farkas, 
 J. B. Foresman, and D. J. Fox, Gaussian, Inc., Wallingford CT, 2016.
 
 ******************************************
 Gaussian 16:  ES64L-G16RevA.03 25-Dec-2016
                14-Oct-2023 
 ******************************************
 %mem=10GB
 %nprocshared=20
 Will use up to   20 processors via shared memory.
 -----------------------------------------------------
 # m062x/6-31+G(d,p) opt freq scrf=(SMD,solvent=water)
 -----------------------------------------------------
 1/18=20,19=15,26=3,38=1/1,3;
 2/9=110,12=2,17=6,18=5,40=1/2;
 3/5=1,6=6,7=111,11=2,25=1,30=1,70=32201,71=1,72=1,74=-55/1,2,3;
 4//1;
 5/5=2,38=5,53=1/2;
 6/7=2,8=2,9=2,10=2,28=1/1;
 7//1,2,3,16;
 1/18=20,19=15,26=3/3(2);
 2/9=110/2;
 99//99;
 2/9=110/2;
 3/5=1,6=6,7=111,11=2,25=1,30=1,70=32205,71=1,72=1,74=-55/1,2,3;
 4/5=5,16=3,69=1/1;
 5/5=2,38=5,53=1/2;
 7//1,2,3,16;
 1/18=20,19=15,26=3/3(-5);
 2/9=110/2;
 6/7=2,8=2,9=2,10=2,19=2,28=1/1;
 99/9=1/99;
 ----------
 "Sketch 3"
 ----------
 Symbolic Z-matrix:
 Charge = -1 Multiplicity = 1
 O                    -1.22606  -0.75899   0. 
 H                    -0.11606  -0.75899   0. 
 

 GradGradGradGradGradGradGradGradGradGradGradGradGradGradGradGradGradGrad
 Berny optimization.
 Initialization pass.
                           ----------------------------
                           !    Initial Parameters    !
                           ! (Angstroms and Degrees)  !
 --------------------------                            --------------------------
 ! Name  Definition              Value          Derivative Info.                !
 --------------------------------------------------------------------------------
 ! R1    R(1,2)                  1.11           estimate D2E/DX2                !
 --------------------------------------------------------------------------------
 Trust Radius=3.00D-01 FncErr=1.00D-07 GrdErr=1.00D-06 EigMax=2.50D+02 EigMin=1.00D-04
 Number of steps in this run=     20 maximum allowed number of steps=    100.
 GradGradGradGradGradGradGradGradGradGradGradGradGradGradGradGradGradGrad

                          Input orientation:                          
 ---------------------------------------------------------------------
 Center     Atomic      Atomic             Coordinates (Angstroms)
 Number     Number       Type             X           Y           Z
 ---------------------------------------------------------------------
      1          8           0       -1.226060   -0.758989    0.000000
      2          1           0       -0.116058   -0.758989    0.000000
 ---------------------------------------------------------------------
 Stoichiometry    HO(1-)
 Framework group  C*V[C*(HO)]
 Deg. of freedom     1
 Full point group                 C*V     NOp   4
 Largest Abelian subgroup         C2V     NOp   4
 Largest concise Abelian subgroup C1      NOp   1
                         Standard orientation:                         
 ---------------------------------------------------------------------
 Center     Atomic      Atomic             Coordinates (Angstroms)
 Number     Number       Type             X           Y           Z
 ---------------------------------------------------------------------
      1          8           0        0.000000    0.000000    0.123334
      2          1           0        0.000000    0.000000   -0.986668
 ---------------------------------------------------------------------
 Rotational constants (GHZ):           0.0000000         432.6348625         432.6348625
 Standard basis: 6-31+G(d,p) (6D, 7F)
 There are    13 symmetry adapted cartesian basis functions of A1  symmetry.
 There are     1 symmetry adapted cartesian basis functions of A2  symmetry.
 There are     5 symmetry adapted cartesian basis functions of B1  symmetry.
 There are     5 symmetry adapted cartesian basis functions of B2  symmetry.
 There are    13 symmetry adapted basis functions of A1  symmetry.
 There are     1 symmetry adapted basis functions of A2  symmetry.
 There are     5 symmetry adapted basis functions of B1  symmetry.
 There are     5 symmetry adapted basis functions of B2  symmetry.
    24 basis functions,    39 primitive gaussians,    24 cartesian basis functions
     5 alpha electrons        5 beta electrons
       nuclear repulsion energy         3.8138829366 Hartrees.
 NAtoms=    2 NActive=    2 NUniq=    2 SFac= 1.00D+00 NAtFMM=   60 NAOKFM=F Big=F
 Integral buffers will be    131072 words long.
 Raffenetti 2 integral format.
 Two-electron integral symmetry is turned on.
 ------------------------------------------------------------------------------
 Polarizable Continuum Model (PCM)
 =================================
 Model                : PCM.
 Atomic radii         : SMD-Coulomb.
 Polarization charges : Total charges.
 Charge compensation  : None.
 Solution method      : On-the-fly selection.
 Cavity type          : VdW (van der Waals Surface) (Alpha=1.000).
 Cavity algorithm     : GePol (No added spheres)
                        Default sphere list used, NSphG=    2.
                        Lebedev-Laikov grids with approx.  5.0 points / Ang**2.
                        Smoothing algorithm: York/Karplus (Gamma=1.0000).
                        Polarization charges: spherical gaussians, with
                                              point-specific exponents (IZeta= 3).
                        Self-potential: point-specific (ISelfS= 7).
                        Self-field    : sphere-specific E.n sum rule (ISelfD= 2).
 1st derivatives      : Analytical E(r).r(x)/FMM algorithm (CHGder, D1EAlg=3).
                        Cavity 1st derivative terms included.
 Solvent              : Water, Eps=  78.355300 Eps(inf)=   1.777849
 ------------------------------------------------------------------------------
 Spheres list:
 ISph  on   Nord     Re0    Alpha      Xe            Ye            Ze
    1   O      1    1.5200  1.000      0.000000      0.000000      0.123334
    2   H      2    1.2000  1.000      0.000000      0.000000     -0.986668
 ------------------------------------------------------------------------------
 ------------------------------------------------------------------------------
 Atomic radii for non-electrostatic terms: SMD-CDS.
 ------------------------------------------------------------------------------
 Nuclear repulsion after PCM non-electrostatic terms =        3.8151688447 Hartrees.
 One-electron integrals computed using PRISM.
 NBasis=    24 RedAO= T EigKep=  2.36D-02  NBF=    13     1     5     5
 NBsUse=    24 1.00D-06 EigRej= -1.00D+00 NBFU=    13     1     5     5
 ExpMin= 8.45D-02 ExpMax= 5.48D+03 ExpMxC= 8.25D+02 IAcc=3 IRadAn=         5 AccDes= 0.00D+00
 Harris functional with IExCor= 1009 and IRadAn=       5 diagonalized for initial guess.
 HarFok:  IExCor= 1009 AccDes= 0.00D+00 IRadAn=         5 IDoV= 1 UseB2=F ITyADJ=14
 ICtDFT=  3500011 ScaDFX=  1.000000  1.000000  1.000000  1.000000
 FoFCou: FMM=F IPFlag=           0 FMFlag=      100000 FMFlg1=           0
         NFxFlg=           0 DoJE=T BraDBF=F KetDBF=T FulRan=T
         wScrn=  0.000000 ICntrl=       500 IOpCl=  0 I1Cent=   200000004 NGrid=           0
         NMat0=    1 NMatS0=      1 NMatT0=    0 NMatD0=    1 NMtDS0=    0 NMtDT0=    0
 Petite list used in FoFCou.
 Initial guess orbital symmetries:
       Occupied  (SG) (SG) (SG) (PI) (PI)
       Virtual   (SG) (SG) (PI) (PI) (SG) (SG) (PI) (PI) (SG) (SG)
                 (PI) (PI) (DLTA) (DLTA) (SG) (PI) (PI) (SG) (SG)
 The electronic state of the initial guess is 1-SG.
 Keep R1 ints in memory in symmetry-blocked form, NReq=17300992.
 Requested convergence on RMS density matrix=1.00D-08 within 128 cycles.
 Requested convergence on MAX density matrix=1.00D-06.
 Requested convergence on             energy=1.00D-06.
 No special actions if energy rises.
 Inv3:  Mode=1 IEnd=      122412.
 Iteration    1 A*A^-1 deviation from unit magnitude is 2.44D-15 for     41.
 Iteration    1 A*A^-1 deviation from orthogonality  is 7.92D-16 for     28      1.
 Iteration    1 A^-1*A deviation from unit magnitude is 2.66D-15 for     50.
 Iteration    1 A^-1*A deviation from orthogonality  is 2.48D-15 for     94     40.
 Error on total polarization charges =  0.07357
 SCF Done:  E(RM062X) =  -75.8990655633     A.U. after    9 cycles
            NFock=  9  Conv=0.94D-08     -V/T= 2.0123
 SMD-CDS (non-electrostatic) energy       (kcal/mol) =       0.81
 (included in total energy above)

 **********************************************************************

            Population analysis using the SCF density.

 **********************************************************************

 Orbital symmetries:
       Occupied  (SG) (SG) (SG) (PI) (PI)
       Virtual   (SG) (SG) (PI) (PI) (SG) (SG) (PI) (PI) (SG) (SG)
                 (PI) (PI) (DLTA) (DLTA) (SG) (PI) (PI) (SG) (SG)
 The electronic state is 1-SG.
 Alpha  occ. eigenvalues --  -19.56587  -0.94940  -0.41348  -0.30279  -0.30279
 Alpha virt. eigenvalues --    0.10622   0.18911   0.20485   0.20485   0.25883
 Alpha virt. eigenvalues --    0.98478   1.25097   1.25097   1.27837   1.33676
 Alpha virt. eigenvalues --    1.69665   1.69665   1.94621   1.94621   2.26529
 Alpha virt. eigenvalues --    2.57778   2.57778   3.30799   3.86791
          Condensed to atoms (all electrons):
               1          2
     1  O    9.099210   0.226263
     2  H    0.226263   0.448264
 Mulliken charges:
               1
     1  O   -1.325473
     2  H    0.325473
 Sum of Mulliken charges =  -1.00000
 Mulliken charges with hydrogens summed into heavy atoms:
               1
     1  O   -1.000000
 Electronic spatial extent (au):  <R**2>=             23.6495
 Charge=             -1.0000 electrons
 Dipole moment (field-independent basis, Debye):
    X=              0.0000    Y=              0.0000    Z=             -2.4814  Tot=              2.4814
 Quadrupole moment (field-independent basis, Debye-Ang):
   XX=             -9.7883   YY=             -9.7883   ZZ=             -6.9723
   XY=              0.0000   XZ=              0.0000   YZ=              0.0000
 Traceless Quadrupole moment (field-independent basis, Debye-Ang):
   XX=             -0.9387   YY=             -0.9387   ZZ=              1.8773
   XY=              0.0000   XZ=              0.0000   YZ=              0.0000
 Octapole moment (field-independent basis, Debye-Ang**2):
  XXX=              0.0000  YYY=              0.0000  ZZZ=             -3.0362  XYY=              0.0000
  XXY=              0.0000  XXZ=             -0.6534  XZZ=              0.0000  YZZ=              0.0000
  YYZ=             -0.6534  XYZ=              0.0000
 Hexadecapole moment (field-independent basis, Debye-Ang**3):
 XXXX=            -12.8018 YYYY=            -12.8018 ZZZZ=            -11.2687 XXXY=              0.0000
 XXXZ=              0.0000 YYYX=              0.0000 YYYZ=              0.0000 ZZZX=              0.0000
 ZZZY=              0.0000 XXYY=             -4.2673 XXZZ=             -4.3771 YYZZ=             -4.3771
 XXYZ=              0.0000 YYXZ=              0.0000 ZZXY=              0.0000
 N-N= 3.815168844669D+00 E-N=-1.905414826776D+02  KE= 7.497749428066D+01
 Symmetry A1   KE= 6.704375373186D+01
 Symmetry A2   KE=-2.448869657864D-51
 Symmetry B1   KE= 3.966870274399D+00
 Symmetry B2   KE= 3.966870274399D+00
 D1PCM: PCM CHGder 1st derivatives, ID1Alg=3 FixD1E=F DoIter=F DoCFld=F I1PDM=0.
 Calling FoFJK, ICntrl=      2127 FMM=F ISym2X=1 I1Cent= 0 IOpClX= 0 NMat=1 NMatS=1 NMatT=0.
 ***** Axes restored to original set *****
 -------------------------------------------------------------------
 Center     Atomic                   Forces (Hartrees/Bohr)
 Number     Number              X              Y              Z
 -------------------------------------------------------------------
      1        8           0.091950808   -0.000000000    0.000000000
      2        1          -0.091950808   -0.000000000   -0.000000000
 -------------------------------------------------------------------
 Cartesian Forces:  Max     0.091950808 RMS     0.053087824

 GradGradGradGradGradGradGradGradGradGradGradGradGradGradGradGradGradGrad
 Berny optimization.
 FormGI is forming the generalized inverse of G from B-inverse, IUseBI=4.
 Internal  Forces:  Max     0.091950808 RMS     0.091950808
 Search for a local minimum.
 Step number   1 out of a maximum of   20
 All quantities printed in internal units (Hartrees-Bohrs-Radians)
 Mixed Optimization -- RFO/linear search
 Second derivative matrix not updated -- first step.
 The second derivative matrix:
                          R1
           R1           0.32600
 ITU=  0
     Eigenvalues ---    0.32600
 RFO step:  Lambda=-2.41469933D-02 EMin= 3.25998093D-01
 Linear search not attempted -- first point.
 Iteration  1 RMS(Cart)=  0.14142136 RMS(Int)=  0.06260773
 Iteration  2 RMS(Cart)=  0.04427035 RMS(Int)=  0.00000000
 Iteration  3 RMS(Cart)=  0.00000000 RMS(Int)=  0.00000000
 ClnCor:  largest displacement from symmetrization is 5.55D-17 for atom     2.
 Variable       Old X    -DE/DX   Delta X   Delta X   Delta X     New X
                                 (Linear)    (Quad)   (Total)
    R1        2.09760  -0.09195   0.00000  -0.26261  -0.26261   1.83499
         Item               Value     Threshold  Converged?
 Maximum Force            0.091951     0.000450     NO 
 RMS     Force            0.091951     0.000300     NO 
 Maximum Displacement     0.131304     0.001800     NO 
 RMS     Displacement     0.185692     0.001200     NO 
 Predicted change in Energy=-1.290612D-02
 GradGradGradGradGradGradGradGradGradGradGradGradGradGradGradGradGradGrad

                          Input orientation:                          
 ---------------------------------------------------------------------
 Center     Atomic      Atomic             Coordinates (Angstroms)
 Number     Number       Type             X           Y           Z
 ---------------------------------------------------------------------
      1          8           0       -1.156577   -0.758989    0.000000
      2          1           0       -0.185541   -0.758989    0.000000
 ---------------------------------------------------------------------
 Stoichiometry    HO(1-)
 Framework group  C*V[C*(HO)]
 Deg. of freedom     1
 Full point group                 C*V     NOp   4
 Largest Abelian subgroup         C2V     NOp   4
 Largest concise Abelian subgroup C1      NOp   1
                         Standard orientation:                         
 ---------------------------------------------------------------------
 Center     Atomic      Atomic             Coordinates (Angstroms)
 Number     Number       Type             X           Y           Z
 ---------------------------------------------------------------------
      1          8           0        0.000000    0.000000    0.107893
      2          1           0        0.000000    0.000000   -0.863143
 ---------------------------------------------------------------------
 Rotational constants (GHZ):           0.0000000         565.3252694         565.3252694
 Standard basis: 6-31+G(d,p) (6D, 7F)
 There are    13 symmetry adapted cartesian basis functions of A1  symmetry.
 There are     1 symmetry adapted cartesian basis functions of A2  symmetry.
 There are     5 symmetry adapted cartesian basis functions of B1  symmetry.
 There are     5 symmetry adapted cartesian basis functions of B2  symmetry.
 There are    13 symmetry adapted basis functions of A1  symmetry.
 There are     1 symmetry adapted basis functions of A2  symmetry.
 There are     5 symmetry adapted basis functions of B1  symmetry.
 There are     5 symmetry adapted basis functions of B2  symmetry.
    24 basis functions,    39 primitive gaussians,    24 cartesian basis functions
     5 alpha electrons        5 beta electrons
       nuclear repulsion energy         4.3596919279 Hartrees.
 NAtoms=    2 NActive=    2 NUniq=    2 SFac= 1.00D+00 NAtFMM=   60 NAOKFM=F Big=F
 Integral buffers will be    131072 words long.
 Raffenetti 2 integral format.
 Two-electron integral symmetry is turned on.
 ------------------------------------------------------------------------------
 Polarizable Continuum Model (PCM)
 =================================
 Model                : PCM.
 Atomic radii         : SMD-Coulomb.
 Polarization charges : Total charges.
 Charge compensation  : None.
 Solution method      : On-the-fly selection.
 Cavity type          : VdW (van der Waals Surface) (Alpha=1.000).
 Cavity algorithm     : GePol (No added spheres)
                        Default sphere list used, NSphG=    2.
                        Lebedev-Laikov grids with approx.  5.0 points / Ang**2.
                        Smoothing algorithm: York/Karplus (Gamma=1.0000).
                        Polarization charges: spherical gaussians, with
                                              point-specific exponents (IZeta= 3).
                        Self-potential: point-specific (ISelfS= 7).
                        Self-field    : sphere-specific E.n sum rule (ISelfD= 2).
 1st derivatives      : Analytical E(r).r(x)/FMM algorithm (CHGder, D1EAlg=3).
                        Cavity 1st derivative terms included.
 Solvent              : Water, Eps=  78.355300 Eps(inf)=   1.777849
 ------------------------------------------------------------------------------
 Spheres list:
 ISph  on   Nord     Re0    Alpha      Xe            Ye            Ze
    1   O      1    1.5200  1.000      0.000000      0.000000      0.107893
    2   H      2    1.2000  1.000      0.000000      0.000000     -0.863143
 ------------------------------------------------------------------------------
 ------------------------------------------------------------------------------
 Atomic radii for non-electrostatic terms: SMD-CDS.
 ------------------------------------------------------------------------------
 Nuclear repulsion after PCM non-electrostatic terms =        4.3608670988 Hartrees.
 One-electron integrals computed using PRISM.
 NBasis=    24 RedAO= T EigKep=  2.27D-02  NBF=    13     1     5     5
 NBsUse=    24 1.00D-06 EigRej= -1.00D+00 NBFU=    13     1     5     5
 Initial guess from the checkpoint file:  "/scratch/gongke2021/OH-/Gau-23656.chk"
 B after Tr=     0.000000    0.000000    0.000000
         Rot=    1.000000    0.000000    0.000000    0.000000 Ang=   0.00 deg.
 Initial guess orbital symmetries:
       Occupied  (SG) (SG) (SG) (PI) (PI)
       Virtual   (SG) (SG) (PI) (PI) (SG) (SG) (PI) (PI) (SG) (SG)
                 (PI) (PI) (DLTA) (DLTA) (SG) (PI) (PI) (SG) (SG)
 ExpMin= 8.45D-02 ExpMax= 5.48D+03 ExpMxC= 8.25D+02 IAcc=2 IRadAn=         4 AccDes= 0.00D+00
 Harris functional with IExCor= 1009 and IRadAn=       4 diagonalized for initial guess.
 HarFok:  IExCor= 1009 AccDes= 0.00D+00 IRadAn=         4 IDoV= 1 UseB2=F ITyADJ=14
 ICtDFT=  3500011 ScaDFX=  1.000000  1.000000  1.000000  1.000000
 FoFCou: FMM=F IPFlag=           0 FMFlag=      100000 FMFlg1=           0
         NFxFlg=           0 DoJE=T BraDBF=F KetDBF=T FulRan=T
         wScrn=  0.000000 ICntrl=       500 IOpCl=  0 I1Cent=   200000004 NGrid=           0
         NMat0=    1 NMatS0=      1 NMatT0=    0 NMatD0=    1 NMtDS0=    0 NMtDT0=    0
 Petite list used in FoFCou.
 Keep R1 ints in memory in symmetry-blocked form, NReq=17300992.
 Requested convergence on RMS density matrix=1.00D-08 within 128 cycles.
 Requested convergence on MAX density matrix=1.00D-06.
 Requested convergence on             energy=1.00D-06.
 No special actions if energy rises.
 Inv3:  Mode=1 IEnd=      122412.
 Iteration    1 A*A^-1 deviation from unit magnitude is 2.44D-15 for     41.
 Iteration    1 A*A^-1 deviation from orthogonality  is 8.91D-16 for     54     30.
 Iteration    1 A^-1*A deviation from unit magnitude is 2.44D-15 for     29.
 Iteration    1 A^-1*A deviation from orthogonality  is 1.20D-15 for     92     38.
 Error on total polarization charges =  0.07266
 SCF Done:  E(RM062X) =  -75.9139032323     A.U. after    9 cycles
            NFock=  9  Conv=0.86D-08     -V/T= 2.0099
 SMD-CDS (non-electrostatic) energy       (kcal/mol) =       0.74
 (included in total energy above)
 D1PCM: PCM CHGder 1st derivatives, ID1Alg=3 FixD1E=F DoIter=F DoCFld=F I1PDM=0.
 Calling FoFJK, ICntrl=      2127 FMM=F ISym2X=1 I1Cent= 0 IOpClX= 0 NMat=1 NMatS=1 NMatT=0.
 ***** Axes restored to original set *****
 -------------------------------------------------------------------
 Center     Atomic                   Forces (Hartrees/Bohr)
 Number     Number              X              Y              Z
 -------------------------------------------------------------------
      1        8           0.006585983   -0.000000000    0.000000000
      2        1          -0.006585983    0.000000000   -0.000000000
 -------------------------------------------------------------------
 Cartesian Forces:  Max     0.006585983 RMS     0.003802419

 GradGradGradGradGradGradGradGradGradGradGradGradGradGradGradGradGradGrad
 Berny optimization.
 Using GEDIIS/GDIIS optimizer.
 Internal  Forces:  Max     0.006585983 RMS     0.006585983
 Search for a local minimum.
 Step number   2 out of a maximum of   20
 All quantities printed in internal units (Hartrees-Bohrs-Radians)
 Mixed Optimization -- RFO/linear search
 Update second derivatives using D2CorX and points    1    2
 DE= -1.48D-02 DEPred=-1.29D-02 R= 1.15D+00
 TightC=F SS=  1.41D+00  RLast= 2.63D-01 DXNew= 5.0454D-01 7.8782D-01
 Trust test= 1.15D+00 RLast= 2.63D-01 DXMaxT set to 5.05D-01
 The second derivative matrix:
                          R1
           R1           0.32507
 ITU=  1  0
 Use linear search instead of GDIIS.
     Eigenvalues ---    0.32507
 RFO step:  Lambda= 0.00000000D+00 EMin= 3.25065920D-01
 Quartic linear search produced a step of  0.04871.
 Iteration  1 RMS(Cart)=  0.00904537 RMS(Int)=  0.00000000
 Iteration  2 RMS(Cart)=  0.00000000 RMS(Int)=  0.00000000
 ClnCor:  largest displacement from symmetrization is 0.00D+00 for atom     0.
 Variable       Old X    -DE/DX   Delta X   Delta X   Delta X     New X
                                 (Linear)    (Quad)   (Total)
    R1        1.83499  -0.00659  -0.01279   0.00000  -0.01279   1.82220
         Item               Value     Threshold  Converged?
 Maximum Force            0.006586     0.000450     NO 
 RMS     Force            0.006586     0.000300     NO 
 Maximum Displacement     0.006396     0.001800     NO 
 RMS     Displacement     0.009045     0.001200     NO 
 Predicted change in Energy=-5.765199D-05
 GradGradGradGradGradGradGradGradGradGradGradGradGradGradGradGradGradGrad

                          Input orientation:                          
 ---------------------------------------------------------------------
 Center     Atomic      Atomic             Coordinates (Angstroms)
 Number     Number       Type             X           Y           Z
 ---------------------------------------------------------------------
      1          8           0       -1.153192   -0.758989    0.000000
      2          1           0       -0.188926   -0.758989    0.000000
 ---------------------------------------------------------------------
 Stoichiometry    HO(1-)
 Framework group  C*V[C*(HO)]
 Deg. of freedom     1
 Full point group                 C*V     NOp   4
 Largest Abelian subgroup         C2V     NOp   4
 Largest concise Abelian subgroup C1      NOp   1
                         Standard orientation:                         
 ---------------------------------------------------------------------
 Center     Atomic      Atomic             Coordinates (Angstroms)
 Number     Number       Type             X           Y           Z
 ---------------------------------------------------------------------
      1          8           0        0.000000    0.000000    0.107141
      2          1           0        0.000000    0.000000   -0.857126
 ---------------------------------------------------------------------
 Rotational constants (GHZ):           0.0000000         573.2904505         573.2904505
 Standard basis: 6-31+G(d,p) (6D, 7F)
 There are    13 symmetry adapted cartesian basis functions of A1  symmetry.
 There are     1 symmetry adapted cartesian basis functions of A2  symmetry.
 There are     5 symmetry adapted cartesian basis functions of B1  symmetry.
 There are     5 symmetry adapted cartesian basis functions of B2  symmetry.
 There are    13 symmetry adapted basis functions of A1  symmetry.
 There are     1 symmetry adapted basis functions of A2  symmetry.
 There are     5 symmetry adapted basis functions of B1  symmetry.
 There are     5 symmetry adapted basis functions of B2  symmetry.
    24 basis functions,    39 primitive gaussians,    24 cartesian basis functions
     5 alpha electrons        5 beta electrons
       nuclear repulsion energy         4.3902975583 Hartrees.
 NAtoms=    2 NActive=    2 NUniq=    2 SFac= 1.00D+00 NAtFMM=   60 NAOKFM=F Big=F
 Integral buffers will be    131072 words long.
 Raffenetti 2 integral format.
 Two-electron integral symmetry is turned on.
 ------------------------------------------------------------------------------
 Polarizable Continuum Model (PCM)
 =================================
 Model                : PCM.
 Atomic radii         : SMD-Coulomb.
 Polarization charges : Total charges.
 Charge compensation  : None.
 Solution method      : On-the-fly selection.
 Cavity type          : VdW (van der Waals Surface) (Alpha=1.000).
 Cavity algorithm     : GePol (No added spheres)
                        Default sphere list used, NSphG=    2.
                        Lebedev-Laikov grids with approx.  5.0 points / Ang**2.
                        Smoothing algorithm: York/Karplus (Gamma=1.0000).
                        Polarization charges: spherical gaussians, with
                                              point-specific exponents (IZeta= 3).
                        Self-potential: point-specific (ISelfS= 7).
                        Self-field    : sphere-specific E.n sum rule (ISelfD= 2).
 1st derivatives      : Analytical E(r).r(x)/FMM algorithm (CHGder, D1EAlg=3).
                        Cavity 1st derivative terms included.
 Solvent              : Water, Eps=  78.355300 Eps(inf)=   1.777849
 ------------------------------------------------------------------------------
 Spheres list:
 ISph  on   Nord     Re0    Alpha      Xe            Ye            Ze
    1   O      1    1.5200  1.000      0.000000      0.000000      0.107141
    2   H      2    1.2000  1.000      0.000000      0.000000     -0.857126
 ------------------------------------------------------------------------------
 ------------------------------------------------------------------------------
 Atomic radii for non-electrostatic terms: SMD-CDS.
 ------------------------------------------------------------------------------
 Nuclear repulsion after PCM non-electrostatic terms =        4.3914669189 Hartrees.
 One-electron integrals computed using PRISM.
 NBasis=    24 RedAO= T EigKep=  2.26D-02  NBF=    13     1     5     5
 NBsUse=    24 1.00D-06 EigRej= -1.00D+00 NBFU=    13     1     5     5
 Initial guess from the checkpoint file:  "/scratch/gongke2021/OH-/Gau-23656.chk"
 B after Tr=     0.000000    0.000000    0.000000
         Rot=    1.000000    0.000000    0.000000    0.000000 Ang=   0.00 deg.
 Initial guess orbital symmetries:
       Occupied  (SG) (SG) (SG) (PI) (PI)
       Virtual   (SG) (SG) (PI) (PI) (SG) (SG) (SG) (PI) (PI) (SG)
                 (PI) (PI) (DLTA) (DLTA) (SG) (PI) (PI) (SG) (SG)
 Keep R1 ints in memory in symmetry-blocked form, NReq=17300992.
 Requested convergence on RMS density matrix=1.00D-08 within 128 cycles.
 Requested convergence on MAX density matrix=1.00D-06.
 Requested convergence on             energy=1.00D-06.
 No special actions if energy rises.
 Inv3:  Mode=1 IEnd=      122412.
 Iteration    1 A*A^-1 deviation from unit magnitude is 3.11D-15 for      1.
 Iteration    1 A*A^-1 deviation from orthogonality  is 1.06D-15 for     54      6.
 Iteration    1 A^-1*A deviation from unit magnitude is 2.22D-15 for     30.
 Iteration    1 A^-1*A deviation from orthogonality  is 7.77D-16 for    186     16.
 Error on total polarization charges =  0.07261
 SCF Done:  E(RM062X) =  -75.9139445418     A.U. after    8 cycles
            NFock=  8  Conv=0.30D-08     -V/T= 2.0097
 SMD-CDS (non-electrostatic) energy       (kcal/mol) =       0.73
 (included in total energy above)
 D1PCM: PCM CHGder 1st derivatives, ID1Alg=3 FixD1E=F DoIter=F DoCFld=F I1PDM=0.
 Calling FoFJK, ICntrl=      2127 FMM=F ISym2X=1 I1Cent= 0 IOpClX= 0 NMat=1 NMatS=1 NMatT=0.
 ***** Axes restored to original set *****
 -------------------------------------------------------------------
 Center     Atomic                   Forces (Hartrees/Bohr)
 Number     Number              X              Y              Z
 -------------------------------------------------------------------
      1        8          -0.000180151   -0.000000000   -0.000000000
      2        1           0.000180151   -0.000000000    0.000000000
 -------------------------------------------------------------------
 Cartesian Forces:  Max     0.000180151 RMS     0.000104010

 GradGradGradGradGradGradGradGradGradGradGradGradGradGradGradGradGradGrad
 Berny optimization.
 Using GEDIIS/GDIIS optimizer.
 Internal  Forces:  Max     0.000180151 RMS     0.000180151
 Search for a local minimum.
 Step number   3 out of a maximum of   20
 All quantities printed in internal units (Hartrees-Bohrs-Radians)
 Mixed Optimization -- En-DIIS/RFO-DIIS
 Update second derivatives using D2CorX and points    2    3
 DE= -4.13D-05 DEPred=-5.77D-05 R= 7.17D-01
 TightC=F SS=  1.41D+00  RLast= 1.28D-02 DXNew= 8.4853D-01 3.8376D-02
 Trust test= 7.17D-01 RLast= 1.28D-02 DXMaxT set to 5.05D-01
 The second derivative matrix:
                          R1
           R1           0.52893
 ITU=  1  1
 Use linear search instead of GDIIS.
     Eigenvalues ---    0.52893
 RFO step:  Lambda= 0.00000000D+00 EMin= 5.28931056D-01
 Quartic linear search produced a step of -0.02603.
 Iteration  1 RMS(Cart)=  0.00023545 RMS(Int)=  0.00000000
 Iteration  2 RMS(Cart)=  0.00000000 RMS(Int)=  0.00000000
 ClnCor:  largest displacement from symmetrization is 0.00D+00 for atom     0.
 Variable       Old X    -DE/DX   Delta X   Delta X   Delta X     New X
                                 (Linear)    (Quad)   (Total)
    R1        1.82220   0.00018   0.00033   0.00000   0.00033   1.82253
         Item               Value     Threshold  Converged?
 Maximum Force            0.000180     0.000450     YES
 RMS     Force            0.000180     0.000300     YES
 Maximum Displacement     0.000166     0.001800     YES
 RMS     Displacement     0.000235     0.001200     YES
 Predicted change in Energy=-3.066402D-08
 Optimization completed.
    -- Stationary point found.
                           ----------------------------
                           !   Optimized Parameters   !
                           ! (Angstroms and Degrees)  !
 --------------------------                            --------------------------
 ! Name  Definition              Value          Derivative Info.                !
 --------------------------------------------------------------------------------
 ! R1    R(1,2)                  0.9643         -DE/DX =    0.0002              !
 --------------------------------------------------------------------------------
 GradGradGradGradGradGradGradGradGradGradGradGradGradGradGradGradGradGrad

                          Input orientation:                          
 ---------------------------------------------------------------------
 Center     Atomic      Atomic             Coordinates (Angstroms)
 Number     Number       Type             X           Y           Z
 ---------------------------------------------------------------------
      1          8           0       -1.153192   -0.758989    0.000000
      2          1           0       -0.188926   -0.758989    0.000000
 ---------------------------------------------------------------------
 Stoichiometry    HO(1-)
 Framework group  C*V[C*(HO)]
 Deg. of freedom     1
 Full point group                 C*V     NOp   4
 Largest Abelian subgroup         C2V     NOp   4
 Largest concise Abelian subgroup C1      NOp   1
                         Standard orientation:                         
 ---------------------------------------------------------------------
 Center     Atomic      Atomic             Coordinates (Angstroms)
 Number     Number       Type             X           Y           Z
 ---------------------------------------------------------------------
      1          8           0        0.000000    0.000000    0.107141
      2          1           0        0.000000    0.000000   -0.857126
 ---------------------------------------------------------------------
 Rotational constants (GHZ):           0.0000000         573.2904505         573.2904505

 **********************************************************************

            Population analysis using the SCF density.

 **********************************************************************

 Orbital symmetries:
       Occupied  (SG) (SG) (SG) (PI) (PI)
       Virtual   (SG) (SG) (PI) (PI) (SG) (SG) (SG) (PI) (PI) (SG)
                 (PI) (PI) (DLTA) (DLTA) (SG) (PI) (PI) (SG) (SG)
 The electronic state is 1-SG.
 Alpha  occ. eigenvalues --  -19.55057  -0.97740  -0.43477  -0.30368  -0.30368
 Alpha virt. eigenvalues --    0.11561   0.18479   0.20580   0.20580   0.31566
 Alpha virt. eigenvalues --    1.09401   1.25084   1.25584   1.25584   1.30425
 Alpha virt. eigenvalues --    1.70119   1.70119   1.94390   1.94391   2.53932
 Alpha virt. eigenvalues --    2.75369   2.75369   3.48684   3.90715
          Condensed to atoms (all electrons):
               1          2
     1  O    9.106060   0.239221
     2  H    0.239221   0.415497
 Mulliken charges:
               1
     1  O   -1.345281
     2  H    0.345281
 Sum of Mulliken charges =  -1.00000
 Mulliken charges with hydrogens summed into heavy atoms:
               1
     1  O   -1.000000
 Electronic spatial extent (au):  <R**2>=             22.5417
 Charge=             -1.0000 electrons
 Dipole moment (field-independent basis, Debye):
    X=              0.0000    Y=              0.0000    Z=             -2.4576  Tot=              2.4576
 Quadrupole moment (field-independent basis, Debye-Ang):
   XX=             -9.6223   YY=             -9.6223   ZZ=             -7.1049
   XY=              0.0000   XZ=              0.0000   YZ=              0.0000
 Traceless Quadrupole moment (field-independent basis, Debye-Ang):
   XX=             -0.8392   YY=             -0.8392   ZZ=              1.6783
   XY=              0.0000   XZ=              0.0000   YZ=              0.0000
 Octapole moment (field-independent basis, Debye-Ang**2):
  XXX=              0.0000  YYY=              0.0000  ZZZ=             -2.8926  XYY=              0.0000
  XXY=              0.0000  XXZ=             -0.7672  XZZ=              0.0000  YZZ=              0.0000
  YYZ=             -0.7672  XYZ=              0.0000
 Hexadecapole moment (field-independent basis, Debye-Ang**3):
 XXXX=            -12.5516 YYYY=            -12.5516 ZZZZ=            -10.2019 XXXY=              0.0000
 XXXZ=              0.0000 YYYX=              0.0000 YYYZ=              0.0000 ZZZX=              0.0000
 ZZZY=              0.0000 XXYY=             -4.1839 XXZZ=             -4.0151 YYZZ=             -4.0151
 XXYZ=              0.0000 YYXZ=              0.0000 ZZXY=              0.0000
 N-N= 4.391466918872D+00 E-N=-1.918335583922D+02  KE= 7.518130981478D+01
 Symmetry A1   KE= 6.727791044666D+01
 Symmetry A2   KE= 1.575134002006D-51
 Symmetry B1   KE= 3.951699684059D+00
 Symmetry B2   KE= 3.951699684059D+00
 1\1\GINC-NODE6\FOpt\RM062X\6-31+G(d,p)\H1O1(1-)\GONGKE2021\14-Oct-2023
 \0\\# m062x/6-31+G(d,p) opt freq scrf=(SMD,solvent=water)\\"Sketch 3"\
 \-1,1\O,-1.1531923442,-0.758989,0.\H,-0.1889256558,-0.758989,0.\\Versi
 on=ES64L-G16RevA.03\State=1-SG\HF=-75.9139445\RMSD=2.996e-09\RMSF=1.04
 0e-04\Dipole=0.966876,0.,0.\Quadrupole=1.2477864,-0.6238932,-0.6238932
 ,0.,0.,0.\PG=C*V [C*(H1O1)]\\@


 THE SECRET OF SUCCESS IN LIFE IS TO EAT WHAT YOU LIKE, AND LET THE FOOD
 FIGHT IT OUT INSIDE YOU. -- FROM A FORTUNE COOKIE
 Job cpu time:       0 days  0 hours  2 minutes 38.0 seconds.
 Elapsed time:       0 days  0 hours  0 minutes  8.9 seconds.
 File lengths (MBytes):  RWF=      6 Int=      0 D2E=      0 Chk=      1 Scr=      1
 Normal termination of Gaussian 16 at Sat Oct 14 22:42:30 2023.
 Link1:  Proceeding to internal job step number  2.
 ----------------------------------------------------------------------
 #N Geom=AllCheck Guess=TCheck SCRF=Check GenChk RM062X/6-31+G(d,p) Fre
 q
 ----------------------------------------------------------------------
 1/10=4,29=7,30=1,38=1,40=1/1,3;
 2/12=2,40=1/2;
 3/5=1,6=6,7=111,11=2,14=-4,25=1,30=1,70=2,71=2,74=-55,116=1,140=1/1,2,3;
 4/5=101/1;
 5/5=2,38=6,98=1/2;
 8/6=4,10=90,11=11/1;
 11/6=1,8=1,9=11,15=111,16=1/1,2,10;
 10/6=1/2;
 6/7=2,8=2,9=2,10=2,28=1/1;
 7/8=1,10=1,25=1/1,2,3,16;
 1/10=4,30=1/3;
 99//99;
 Structure from the checkpoint file:  "/scratch/gongke2021/OH-/Gau-23656.chk"
 ----------
 "Sketch 3"
 ----------
 Charge = -1 Multiplicity = 1
 Redundant internal coordinates found in file.  (old form).
 O,0,-1.1531923442,-0.758989,0.
 H,0,-0.1889256558,-0.758989,0.
 Recover connectivity data from disk.

 GradGradGradGradGradGradGradGradGradGradGradGradGradGradGradGradGradGrad
 Berny optimization.
 Initialization pass.
                           ----------------------------
                           !    Initial Parameters    !
                           ! (Angstroms and Degrees)  !
 --------------------------                            --------------------------
 ! Name  Definition              Value          Derivative Info.                !
 --------------------------------------------------------------------------------
 ! R1    R(1,2)                  0.9643         calculate D2E/DX2 analytically  !
 --------------------------------------------------------------------------------
 Trust Radius=3.00D-01 FncErr=1.00D-07 GrdErr=1.00D-07 EigMax=2.50D+02 EigMin=1.00D-04
 Number of steps in this run=      2 maximum allowed number of steps=      2.
 GradGradGradGradGradGradGradGradGradGradGradGradGradGradGradGradGradGrad

                          Input orientation:                          
 ---------------------------------------------------------------------
 Center     Atomic      Atomic             Coordinates (Angstroms)
 Number     Number       Type             X           Y           Z
 ---------------------------------------------------------------------
      1          8           0       -1.153192   -0.758989    0.000000
      2          1           0       -0.188926   -0.758989    0.000000
 ---------------------------------------------------------------------
 Stoichiometry    HO(1-)
 Framework group  C*V[C*(HO)]
 Deg. of freedom     1
 Full point group                 C*V     NOp   4
 Largest Abelian subgroup         C2V     NOp   4
 Largest concise Abelian subgroup C1      NOp   1
                         Standard orientation:                         
 ---------------------------------------------------------------------
 Center     Atomic      Atomic             Coordinates (Angstroms)
 Number     Number       Type             X           Y           Z
 ---------------------------------------------------------------------
      1          8           0        0.000000    0.000000    0.107141
      2          1           0        0.000000    0.000000   -0.857126
 ---------------------------------------------------------------------
 Rotational constants (GHZ):           0.0000000         573.2904505         573.2904505
 Standard basis: 6-31+G(d,p) (6D, 7F)
 There are    13 symmetry adapted cartesian basis functions of A1  symmetry.
 There are     1 symmetry adapted cartesian basis functions of A2  symmetry.
 There are     5 symmetry adapted cartesian basis functions of B1  symmetry.
 There are     5 symmetry adapted cartesian basis functions of B2  symmetry.
 There are    13 symmetry adapted basis functions of A1  symmetry.
 There are     1 symmetry adapted basis functions of A2  symmetry.
 There are     5 symmetry adapted basis functions of B1  symmetry.
 There are     5 symmetry adapted basis functions of B2  symmetry.
    24 basis functions,    39 primitive gaussians,    24 cartesian basis functions
     5 alpha electrons        5 beta electrons
       nuclear repulsion energy         4.3902975583 Hartrees.
 NAtoms=    2 NActive=    2 NUniq=    2 SFac= 1.00D+00 NAtFMM=   60 NAOKFM=F Big=F
 Integral buffers will be    131072 words long.
 Raffenetti 2 integral format.
 Two-electron integral symmetry is turned on.
 Force inversion solution in PCM.
 ------------------------------------------------------------------------------
 Polarizable Continuum Model (PCM)
 =================================
 Model                : PCM.
 Atomic radii         : SMD-Coulomb.
 Polarization charges : Total charges.
 Charge compensation  : None.
 Solution method      : Matrix inversion.
 Cavity type          : VdW (van der Waals Surface) (Alpha=1.000).
 Cavity algorithm     : GePol (No added spheres)
                        Default sphere list used, NSphG=    2.
                        Lebedev-Laikov grids with approx.  5.0 points / Ang**2.
                        Smoothing algorithm: York/Karplus (Gamma=1.0000).
                        Polarization charges: spherical gaussians, with
                                              point-specific exponents (IZeta= 3).
                        Self-potential: point-specific (ISelfS= 7).
                        Self-field    : sphere-specific E.n sum rule (ISelfD= 2).
 1st derivatives      : Analytical E(r).r(x)/FMM algorithm (CHGder, D1EAlg=3).
                        Cavity 1st derivative terms included.
 2nd derivatives      : Analytical E(r).r(xy)/FMM algorithm (CHGder, D2EAlg=3).
                        Cavity 2nd derivative terms included.
 Solvent              : Water, Eps=  78.355300 Eps(inf)=   1.777849
 ------------------------------------------------------------------------------
 Spheres list:
 ISph  on   Nord     Re0    Alpha      Xe            Ye            Ze
    1   O      1    1.5200  1.000      0.000000      0.000000      0.107141
    2   H      2    1.2000  1.000      0.000000      0.000000     -0.857126
 ------------------------------------------------------------------------------
 ------------------------------------------------------------------------------
 Atomic radii for non-electrostatic terms: SMD-CDS.
 ------------------------------------------------------------------------------
 Nuclear repulsion after PCM non-electrostatic terms =        4.3914669189 Hartrees.
 One-electron integrals computed using PRISM.
 NBasis=    24 RedAO= T EigKep=  2.26D-02  NBF=    13     1     5     5
 NBsUse=    24 1.00D-06 EigRej= -1.00D+00 NBFU=    13     1     5     5
 Initial guess from the checkpoint file:  "/scratch/gongke2021/OH-/Gau-23656.chk"
 B after Tr=     0.000000    0.000000    0.000000
         Rot=    1.000000    0.000000    0.000000    0.000000 Ang=   0.00 deg.
 Initial guess orbital symmetries:
       Occupied  (SG) (SG) (SG) (PI) (PI)
       Virtual   (SG) (SG) (PI) (PI) (SG) (SG) (SG) (PI) (PI) (SG)
                 (PI) (PI) (DLTA) (DLTA) (SG) (PI) (PI) (SG) (SG)
 Keep R1 ints in memory in symmetry-blocked form, NReq=17300992.
 Requested convergence on RMS density matrix=1.00D-08 within 128 cycles.
 Requested convergence on MAX density matrix=1.00D-06.
 Requested convergence on             energy=1.00D-06.
 No special actions if energy rises.
 Inv3:  Mode=1 IEnd=      122412.
 Iteration    1 A*A^-1 deviation from unit magnitude is 2.44D-15 for      1.
 Iteration    1 A*A^-1 deviation from orthogonality  is 1.14D-15 for     54      6.
 Iteration    1 A^-1*A deviation from unit magnitude is 2.22D-15 for     30.
 Iteration    1 A^-1*A deviation from orthogonality  is 8.88D-16 for    186     16.
 Skip diagonalization as Alpha Fock matrix is already diagonal.
 Error on total polarization charges =  0.07261
 SCF Done:  E(RM062X) =  -75.9139445418     A.U. after    1 cycles
            NFock=  1  Conv=0.00D+00     -V/T= 2.0097
 SMD-CDS (non-electrostatic) energy       (kcal/mol) =       0.73
 (included in total energy above)
 DoSCS=F DFT=T ScalE2(SS,OS)=  1.000000  1.000000
 Range of M.O.s used for correlation:     1    24
 NBasis=    24 NAE=     5 NBE=     5 NFC=     0 NFV=     0
 NROrb=     24 NOA=     5 NOB=     5 NVA=    19 NVB=    19
 Symmetrizing basis deriv contribution to polar:
 IMax=3 JMax=2 DiffMx= 0.00D+00
 G2DrvN: will do     3 centers at a time, making    1 passes.
 Calling FoFCou, ICntrl=  3107 FMM=F I1Cent=   0 AccDes= 0.00D+00.
 NEqPCM:  Using equilibrium solvation (IEInf=0, Eps=  78.3553, EpsInf=   1.7778)
 G2PCM: DoFxE=T DoFxN=T DoGrad=T DoDP/DQ/DG/TGxP=FFFF NFrqRd=   0 IEInf=0 SqF1=F DoCFld=F IF1Alg=4.
 End of G2Drv F.D. properties file   721 does not exist.
 End of G2Drv F.D. properties file   722 does not exist.
 End of G2Drv F.D. properties file   788 does not exist.
          IDoAtm=11
 NEqPCM:  Using equilibrium solvation (IEInf=0, Eps=  78.3553, EpsInf=   1.7778)
          Differentiating once with respect to electric field.
                with respect to dipole field.
          Differentiating once with respect to nuclear coordinates.
 Keep R1 ints in memory in symmetry-blocked form, NReq=17232845.
          There are     9 degrees of freedom in the 1st order CPHF.  IDoFFX=6 NUNeed=     3.
      6 vectors produced by pass  0 Test12= 1.06D-15 1.11D-08 XBig12= 3.19D+00 1.62D+00.
 AX will form     6 AO Fock derivatives at one time.
      6 vectors produced by pass  1 Test12= 1.06D-15 1.11D-08 XBig12= 2.59D-01 2.12D-01.
      6 vectors produced by pass  2 Test12= 1.06D-15 1.11D-08 XBig12= 6.04D-03 4.36D-02.
      6 vectors produced by pass  3 Test12= 1.06D-15 1.11D-08 XBig12= 2.48D-05 2.24D-03.
      6 vectors produced by pass  4 Test12= 1.06D-15 1.11D-08 XBig12= 3.75D-08 1.02D-04.
      6 vectors produced by pass  5 Test12= 1.06D-15 1.11D-08 XBig12= 8.93D-11 4.64D-06.
      4 vectors produced by pass  6 Test12= 1.06D-15 1.11D-08 XBig12= 1.71D-13 1.58D-07.
 InvSVY:  IOpt=1 It=  1 EMax= 3.33D-16
 Solved reduced A of dimension    40 with     6 vectors.
 Isotropic polarizability for W=    0.000000       11.06 Bohr**3.
 End of Minotr F.D. properties file   721 does not exist.
 End of Minotr F.D. properties file   722 does not exist.
 End of Minotr F.D. properties file   788 does not exist.

 **********************************************************************

            Population analysis using the SCF density.

 **********************************************************************

 Orbital symmetries:
       Occupied  (SG) (SG) (SG) (PI) (PI)
       Virtual   (SG) (SG) (PI) (PI) (SG) (SG) (SG) (PI) (PI) (SG)
                 (PI) (PI) (DLTA) (DLTA) (SG) (PI) (PI) (SG) (SG)
 The electronic state is 1-SG.
 Alpha  occ. eigenvalues --  -19.55057  -0.97740  -0.43477  -0.30368  -0.30368
 Alpha virt. eigenvalues --    0.11561   0.18479   0.20580   0.20580   0.31566
 Alpha virt. eigenvalues --    1.09401   1.25084   1.25584   1.25584   1.30425
 Alpha virt. eigenvalues --    1.70119   1.70119   1.94390   1.94391   2.53932
 Alpha virt. eigenvalues --    2.75369   2.75369   3.48684   3.90715
          Condensed to atoms (all electrons):
               1          2
     1  O    9.106060   0.239221
     2  H    0.239221   0.415497
 Mulliken charges:
               1
     1  O   -1.345281
     2  H    0.345281
 Sum of Mulliken charges =  -1.00000
 Mulliken charges with hydrogens summed into heavy atoms:
               1
     1  O   -1.000000
 APT charges:
               1
     1  O   -1.268637
     2  H    0.268637
 Sum of APT charges =  -1.00000
 APT charges with hydrogens summed into heavy atoms:
               1
     1  O   -1.000000
 Electronic spatial extent (au):  <R**2>=             22.5417
 Charge=             -1.0000 electrons
 Dipole moment (field-independent basis, Debye):
    X=              0.0000    Y=              0.0000    Z=             -2.4576  Tot=              2.4576
 Quadrupole moment (field-independent basis, Debye-Ang):
   XX=             -9.6223   YY=             -9.6223   ZZ=             -7.1049
   XY=              0.0000   XZ=              0.0000   YZ=              0.0000
 Traceless Quadrupole moment (field-independent basis, Debye-Ang):
   XX=             -0.8392   YY=             -0.8392   ZZ=              1.6783
   XY=              0.0000   XZ=              0.0000   YZ=              0.0000
 Octapole moment (field-independent basis, Debye-Ang**2):
  XXX=              0.0000  YYY=              0.0000  ZZZ=             -2.8926  XYY=              0.0000
  XXY=              0.0000  XXZ=             -0.7672  XZZ=              0.0000  YZZ=              0.0000
  YYZ=             -0.7672  XYZ=              0.0000
 Hexadecapole moment (field-independent basis, Debye-Ang**3):
 XXXX=            -12.5516 YYYY=            -12.5516 ZZZZ=            -10.2019 XXXY=              0.0000
 XXXZ=              0.0000 YYYX=              0.0000 YYYZ=              0.0000 ZZZX=              0.0000
 ZZZY=              0.0000 XXYY=             -4.1839 XXZZ=             -4.0151 YYZZ=             -4.0151
 XXYZ=              0.0000 YYXZ=              0.0000 ZZXY=              0.0000
 N-N= 4.391466918872D+00 E-N=-1.918335583922D+02  KE= 7.518130981478D+01
 Symmetry A1   KE= 6.727791044666D+01
 Symmetry A2   KE= 1.444804519690D-51
 Symmetry B1   KE= 3.951699684059D+00
 Symmetry B2   KE= 3.951699684059D+00
  Exact polarizability:  11.174  -0.000  11.174  -0.000  -0.000  10.817
 Approx polarizability:   7.189  -0.000   7.189  -0.000  -0.000   8.454
 D2PCM: PCM CHGder 2nd derivatives, FixD1E=F FixD2E=F DoIter=F DoCFld=F I1PDM=0
 Calling FoFJK, ICntrl=    100127 FMM=F ISym2X=1 I1Cent= 0 IOpClX= 0 NMat=1 NMatS=1 NMatT=0.
 Full mass-weighted force constant matrix:
 Low frequencies ---   -0.0014   -0.0013   -0.0013   92.9638   92.9638 3884.3111
 Diagonal vibrational polarizability:
        0.0000000       0.0000000       0.0020739
 Harmonic frequencies (cm**-1), IR intensities (KM/Mole), Raman scattering
 activities (A**4/AMU), depolarization ratios for plane and unpolarized
 incident light, reduced masses (AMU), force constants (mDyne/A),
 and normal coordinates:
                      1
                     SG
 Frequencies --   3884.3111
 Red. masses --      1.0671
 Frc consts  --      9.4859
 IR Inten    --      1.1628
  Atom  AN      X      Y      Z
     1   8    -0.00  -0.00  -0.06
     2   1    -0.00  -0.00   1.00

 -------------------
 - Thermochemistry -
 -------------------
 Temperature   298.150 Kelvin.  Pressure   1.00000 Atm.
 Atom     1 has atomic number  8 and mass  15.99491
 Atom     2 has atomic number  1 and mass   1.00783
 Molecular mass:    17.00274 amu.
 Principal axes and moments of inertia in atomic units:
                           1         2         3
     Eigenvalues --     0.00000   3.14804   3.14804
           X            0.00000  -0.00000   1.00000
           Y            0.00000   1.00000   0.00000
           Z            1.00000   0.00000   0.00000
 This molecule is a prolate symmetric top.
 Rotational symmetry number  1.
 Rotational temperature (Kelvin)     27.51360
 Rotational constant (GHZ):         573.290450
 Zero-point vibrational energy      23233.3 (Joules/Mol)
                                    5.55290 (Kcal/Mol)
 Vibrational temperatures:   5588.66
          (Kelvin)
 
 Zero-point correction=                           0.008849 (Hartree/Particle)
 Thermal correction to Energy=                    0.011210
 Thermal correction to Enthalpy=                  0.012154
 Thermal correction to Gibbs Free Energy=        -0.007402
 Sum of electronic and zero-point Energies=            -75.905095
 Sum of electronic and thermal Energies=               -75.902735
 Sum of electronic and thermal Enthalpies=             -75.901791
 Sum of electronic and thermal Free Energies=          -75.921347
 
                     E (Thermal)             CV                S
                      KCal/Mol        Cal/Mol-Kelvin    Cal/Mol-Kelvin
 Total                    7.034              4.968             41.159
 Electronic               0.000              0.000              0.000
 Translational            0.889              2.981             34.437
 Rotational               0.592              1.987              6.723
 Vibrational              5.553              0.000              0.000
                       Q            Log10(Q)             Ln(Q)
 Total Bot       0.253989D+04          3.404814          7.839875
 Total V=0       0.298620D+08          7.475120         17.212099
 Vib (Bot)       0.850540D-04         -4.070305         -9.372224
 Vib (V=0)       0.100000D+01          0.000000          0.000000
 Electronic      0.100000D+01          0.000000          0.000000
 Translational   0.275570D+07          6.440232         14.829183
 Rotational      0.108365D+02          1.034887          2.382916
 ***** Axes restored to original set *****
 -------------------------------------------------------------------
 Center     Atomic                   Forces (Hartrees/Bohr)
 Number     Number              X              Y              Z
 -------------------------------------------------------------------
      1        8          -0.000180152    0.000000000    0.000000000
      2        1           0.000180152   -0.000000000   -0.000000000
 -------------------------------------------------------------------
 Cartesian Forces:  Max     0.000180152 RMS     0.000104011
 FormGI is forming the generalized inverse of G from B-inverse, IUseBI=4.

 GradGradGradGradGradGradGradGradGradGradGradGradGradGradGradGradGradGrad
 Berny optimization.
 Internal  Forces:  Max     0.000180152 RMS     0.000180152
 Search for a local minimum.
 Step number   1 out of a maximum of    2
 All quantities printed in internal units (Hartrees-Bohrs-Radians)
 Second derivative matrix not updated -- analytic derivatives used.
 The second derivative matrix:
                          R1
           R1           0.54134
 ITU=  0
     Eigenvalues ---    0.54134
 Angle between quadratic step and forces=   0.00 degrees.
 Linear search not attempted -- first point.
 Iteration  1 RMS(Cart)=  0.00023532 RMS(Int)=  0.00000000
 Iteration  2 RMS(Cart)=  0.00000000 RMS(Int)=  0.00000000
 ClnCor:  largest displacement from symmetrization is 0.00D+00 for atom     0.
 Variable       Old X    -DE/DX   Delta X   Delta X   Delta X     New X
                                 (Linear)    (Quad)   (Total)
    R1        1.82220   0.00018   0.00000   0.00033   0.00033   1.82253
         Item               Value     Threshold  Converged?
 Maximum Force            0.000180     0.000450     YES
 RMS     Force            0.000180     0.000300     YES
 Maximum Displacement     0.000166     0.001800     YES
 RMS     Displacement     0.000235     0.001200     YES
 Predicted change in Energy=-2.997640D-08
 Optimization completed.
    -- Stationary point found.
                           ----------------------------
                           !   Optimized Parameters   !
                           ! (Angstroms and Degrees)  !
 --------------------------                            --------------------------
 ! Name  Definition              Value          Derivative Info.                !
 --------------------------------------------------------------------------------
 ! R1    R(1,2)                  0.9643         -DE/DX =    0.0002              !
 --------------------------------------------------------------------------------
 GradGradGradGradGradGradGradGradGradGradGradGradGradGradGradGradGradGrad


 ----------------------------------------------------------------------

 Electric dipole moment (input orientation):
 (Debye = 10**-18 statcoulomb cm , SI units = C m)
                  (au)            (Debye)         (10**-30 SI)
   Tot        0.966876D+00      0.245755D+01      0.819752D+01
   x          0.966876D+00      0.245755D+01      0.819752D+01
   y          0.000000D+00      0.000000D+00      0.000000D+00
   z          0.000000D+00      0.000000D+00      0.000000D+00

 Dipole polarizability, Alpha (input orientation).
 (esu units = cm**3 , SI units = C**2 m**2 J**-1)
 Alpha(0;0):
               (au)            (10**-24 esu)      (10**-40 SI)
   iso        0.110551D+02      0.163820D+01      0.182274D+01
   aniso      0.357455D+00      0.529694D-01      0.589364D-01
   xx         0.108168D+02      0.160289D+01      0.178345D+01
   yx         0.000000D+00      0.000000D+00      0.000000D+00
   yy         0.111743D+02      0.165586D+01      0.184239D+01
   zx         0.000000D+00      0.000000D+00      0.000000D+00
   zy         0.000000D+00      0.000000D+00      0.000000D+00
   zz         0.111743D+02      0.165586D+01      0.184239D+01

 ----------------------------------------------------------------------

 Dipole orientation:
     8         -0.00000000         -1.43428134         -2.17921770
     1         -0.00000000         -1.43428134         -0.35701775

 Electric dipole moment (dipole orientation):
 (Debye = 10**-18 statcoulomb cm , SI units = C m)
                  (au)            (Debye)         (10**-30 SI)
   Tot        0.966876D+00      0.245755D+01      0.819752D+01
   x          0.000000D+00      0.000000D+00      0.000000D+00
   y          0.000000D+00      0.000000D+00      0.000000D+00
   z          0.966876D+00      0.245755D+01      0.819752D+01

 Dipole polarizability, Alpha (dipole orientation).
 (esu units = cm**3 , SI units = C**2 m**2 J**-1)
 Alpha(0;0):
               (au)            (10**-24 esu)      (10**-40 SI)
   iso        0.110551D+02      0.163820D+01      0.182274D+01
   aniso      0.357455D+00      0.529694D-01      0.589364D-01
   xx         0.111743D+02      0.165586D+01      0.184239D+01
   yx         0.000000D+00      0.000000D+00      0.000000D+00
   yy         0.111743D+02      0.165586D+01      0.184239D+01
   zx         0.000000D+00      0.000000D+00      0.000000D+00
   zy         0.000000D+00      0.000000D+00      0.000000D+00
   zz         0.108168D+02      0.160289D+01      0.178345D+01

 ----------------------------------------------------------------------
 1\1\GINC-NODE6\Freq\RM062X\6-31+G(d,p)\H1O1(1-)\GONGKE2021\14-Oct-2023
 \0\\#N Geom=AllCheck Guess=TCheck SCRF=Check GenChk RM062X/6-31+G(d,p)
  Freq\\"Sketch 3"\\-1,1\O,-1.1531923442,-0.758989,0.\H,-0.1889256558,-
 0.758989,0.\\Version=ES64L-G16RevA.03\State=1-SG\HF=-75.9139445\RMSD=0
 .000e+00\RMSF=1.040e-04\ZeroPoint=0.0088491\Thermal=0.0112096\Dipole=0
 .966876,0.,0.\DipoleDeriv=-0.9743531,0.,0.,0.,-1.4157787,0.,0.,0.,-1.4
 157787,-0.0256469,0.,0.,0.,0.4157787,0.,0.,0.,0.4157787\Polar=10.81682
 52,0.,11.1742805,0.,0.,11.1742805\Quadrupole=1.2477864,-0.6238932,-0.6
 238932,0.,0.,0.\PG=C*V [C*(H1O1)]\NImag=0\\0.54133690,0.,0.00031008,0.
 ,0.,0.00031008,-0.54133690,0.,0.,0.54133690,0.,-0.00031008,0.,0.,0.000
 31008,0.,0.,-0.00031008,0.,0.,0.00031008\\0.00018015,0.,0.,-0.00018015
 ,0.,0.\\\@


 THE GREAT THING ABOUT BEING IMPERFECT IS THE JOY IT BRINGS OTHERS.
   -- SIGN OUTSIDE LAKE AGASSIZ JR. HIGH SCHOOL, FARGO, N.D.
 Job cpu time:       0 days  0 hours  2 minutes  3.7 seconds.
 Elapsed time:       0 days  0 hours  0 minutes  6.7 seconds.
 File lengths (MBytes):  RWF=      6 Int=      0 D2E=      0 Chk=      2 Scr=      1
 Normal termination of Gaussian 16 at Sat Oct 14 22:42:38 2023.
