 Entering Gaussian System, Link 0=/opt/soft/g16b/g16/g16
 Initial command:
 /opt/soft/g16b/g16/l1.exe "/scratch/gongke2021/bizuo-TS/Gau-25487.inp" -scrdir="/scratch/gongke2021/bizuo-TS/"
 Entering Link 1 = /opt/soft/g16b/g16/l1.exe PID=     25488.
  
 Copyright (c) 1988,1990,1992,1993,1995,1998,2003,2009,2016,
            Gaussian, Inc.  All Rights Reserved.
  
 This is part of the Gaussian(R) 16 program.  It is based on
 the Gaussian(R) 09 system (copyright 2009, Gaussian, Inc.),
 the Gaussian(R) 03 system (copyright 2003, Gaussian, Inc.),
 the Gaussian(R) 98 system (copyright 1998, Gaussian, Inc.),
 the Gaussian(R) 94 system (copyright 1995, Gaussian, Inc.),
 the Gaussian 92(TM) system (copyright 1992, Gaussian, Inc.),
 the Gaussian 90(TM) system (copyright 1990, Gaussian, Inc.),
 the Gaussian 88(TM) system (copyright 1988, Gaussian, Inc.),
 the Gaussian 86(TM) system (copyright 1986, Carnegie Mellon
 University), and the Gaussian 82(TM) system (copyright 1983,
 Carnegie Mellon University). Gaussian is a federally registered
 trademark of Gaussian, Inc.
  
 This software contains proprietary and confidential information,
 including trade secrets, belonging to Gaussian, Inc.
  
 This software is provided under written license and may be
 used, copied, transmitted, or stored only in accord with that
 written license.
  
 The following legend is applicable only to US Government
 contracts under FAR:
  
                    RESTRICTED RIGHTS LEGEND
  
 Use, reproduction and disclosure by the US Government is
 subject to restrictions as set forth in subparagraphs (a)
 and (c) of the Commercial Computer Software - Restricted
 Rights clause in FAR 52.227-19.
  
 Gaussian, Inc.
 340 Quinnipiac St., Bldg. 40, Wallingford CT 06492
  
  
 ---------------------------------------------------------------
 Warning -- This program may not be used in any manner that
 competes with the business of Gaussian, Inc. or will provide
 assistance to any competitor of Gaussian, Inc.  The licensee
 of this program is prohibited from giving any competitor of
 Gaussian, Inc. access to this program.  By using this program,
 the user acknowledges that Gaussian, Inc. is engaged in the
 business of creating and licensing software in the field of
 computational chemistry and represents and warrants to the
 licensee that it is not a competitor of Gaussian, Inc. and that
 it will not use this program in any manner prohibited above.
 ---------------------------------------------------------------
  

 Cite this work as:
 Gaussian 16, Revision A.03,
 M. J. Frisch, G. W. Trucks, H. B. Schlegel, G. E. Scuseria, 
 M. A. Robb, J. R. Cheeseman, G. Scalmani, V. Barone, 
 G. A. Petersson, H. Nakatsuji, X. Li, M. Caricato, A. V. Marenich, 
 J. Bloino, B. G. Janesko, R. Gomperts, B. Mennucci, H. P. Hratchian, 
 J. V. Ortiz, A. F. Izmaylov, J. L. Sonnenberg, D. Williams-Young, 
 F. Ding, F. Lipparini, F. Egidi, J. Goings, B. Peng, A. Petrone, 
 T. Henderson, D. Ranasinghe, V. G. Zakrzewski, J. Gao, N. Rega, 
 G. Zheng, W. Liang, M. Hada, M. Ehara, K. Toyota, R. Fukuda, 
 J. Hasegawa, M. Ishida, T. Nakajima, Y. Honda, O. Kitao, H. Nakai, 
 T. Vreven, K. Throssell, J. A. Montgomery, Jr., J. E. Peralta, 
 F. Ogliaro, M. J. Bearpark, J. J. Heyd, E. N. Brothers, K. N. Kudin, 
 V. N. Staroverov, T. A. Keith, R. Kobayashi, J. Normand, 
 K. Raghavachari, A. P. Rendell, J. C. Burant, S. S. Iyengar, 
 J. Tomasi, M. Cossi, J. M. Millam, M. Klene, C. Adamo, R. Cammi, 
 J. W. Ochterski, R. L. Martin, K. Morokuma, O. Farkas, 
 J. B. Foresman, and D. J. Fox, Gaussian, Inc., Wallingford CT, 2016.
 
 ******************************************
 Gaussian 16:  ES64L-G16RevA.03 25-Dec-2016
                 5-Nov-2023 
 ******************************************
 %mem=10GB
 %nprocshared=20
 Will use up to   20 processors via shared memory.
 ----------------------------------------------------------------------
 # opt=(calcfc,ts,noeigentest) freq 6-31+g(d,p) scrf=(smd,solvent=water
 ) integral=grid=ultrafine m062x
 ----------------------------------------------------------------------
 1/5=1,10=4,11=1,18=20,26=6,38=1/1,3;
 2/9=110,12=2,17=6,18=5,40=1/2;
 3/5=1,6=6,7=111,11=2,25=1,30=1,70=32201,71=2,72=1,74=-55,75=-5,140=1/1,2,3;
 4//1;
 5/5=2,38=5,53=1/2;
 8/6=4,10=90,11=11/1;
 11/6=1,8=1,9=11,15=111,16=1/1,2,10;
 10/6=1,13=1/2;
 6/7=2,8=2,9=2,10=2,28=1/1;
 7/10=1,18=20,25=1/1,2,3,16;
 1/5=1,10=4,11=1,18=20,26=6/3(2);
 2/9=110/2;
 99//99;
 2/9=110/2;
 3/5=1,6=6,7=111,11=2,25=1,30=1,70=32205,71=1,72=1,74=-55,75=-5/1,2,3;
 4/5=5,16=3,69=1/1;
 5/5=2,38=5,53=1/2;
 7//1,2,3,16;
 1/5=1,11=1,18=20,26=6/3(-5);
 2/9=110/2;
 6/7=2,8=2,9=2,10=2,19=2,28=1/1;
 99/9=1/99;
 -------------------
 Title Card Required
 -------------------
 Symbolic Z-matrix:
 Charge = -1 Multiplicity = 2
 N                    -0.59141   0.99088   0.00004 
 N                     0.0002   -0.21218   0.00005 
 C                    -0.9115   -1.20627  0. 
 C                    -2.15309  -0.596     0.00001 
 C                    -1.90126   0.79202   0.00007 
 H                    -0.61194  -2.24408  -0.00098 
 H                    -3.11671  -1.0817    0.00003 
 C                     1.45177  -0.06621   0.00003 
 O                     2.16709  -1.04887   0.00013 
 O                     1.71491   1.18683  -0.00014 
 H                     0.4863    1.60621  -0.00017 
 H                    -2.59071   1.62372   0.00003 
 
 Add virtual bond connecting atoms H11        and N1         Dist= 2.35D+00.
 Add virtual bond connecting atoms H11        and O10        Dist= 2.45D+00.

 GradGradGradGradGradGradGradGradGradGradGradGradGradGradGradGradGradGrad
 Berny optimization.
 Initialization pass.
                           ----------------------------
                           !    Initial Parameters    !
                           ! (Angstroms and Degrees)  !
 --------------------------                            --------------------------
 ! Name  Definition              Value          Derivative Info.                !
 --------------------------------------------------------------------------------
 ! R1    R(1,2)                  1.3407         calculate D2E/DX2 analytically  !
 ! R2    R(1,5)                  1.3249         calculate D2E/DX2 analytically  !
 ! R3    R(1,11)                 1.241          calculate D2E/DX2 analytically  !
 ! R4    R(2,3)                  1.3489         calculate D2E/DX2 analytically  !
 ! R5    R(2,8)                  1.4589         calculate D2E/DX2 analytically  !
 ! R6    R(3,4)                  1.3835         calculate D2E/DX2 analytically  !
 ! R7    R(3,6)                  1.0802         calculate D2E/DX2 analytically  !
 ! R8    R(4,5)                  1.4107         calculate D2E/DX2 analytically  !
 ! R9    R(4,7)                  1.0791         calculate D2E/DX2 analytically  !
 ! R10   R(5,12)                 1.0803         calculate D2E/DX2 analytically  !
 ! R11   R(8,9)                  1.2154         calculate D2E/DX2 analytically  !
 ! R12   R(8,10)                 1.2804         calculate D2E/DX2 analytically  !
 ! R13   R(10,11)                1.2982         calculate D2E/DX2 analytically  !
 ! A1    A(2,1,5)              107.5531         calculate D2E/DX2 analytically  !
 ! A2    A(2,1,11)              93.5384         calculate D2E/DX2 analytically  !
 ! A3    A(5,1,11)             158.9084         calculate D2E/DX2 analytically  !
 ! A4    A(1,2,3)              111.2894         calculate D2E/DX2 analytically  !
 ! A5    A(1,2,8)              110.4438         calculate D2E/DX2 analytically  !
 ! A6    A(3,2,8)              138.2668         calculate D2E/DX2 analytically  !
 ! A7    A(2,3,4)              106.3494         calculate D2E/DX2 analytically  !
 ! A8    A(2,3,6)              121.3747         calculate D2E/DX2 analytically  !
 ! A9    A(4,3,6)              132.276          calculate D2E/DX2 analytically  !
 ! A10   A(3,4,5)              105.8919         calculate D2E/DX2 analytically  !
 ! A11   A(3,4,7)              127.0751         calculate D2E/DX2 analytically  !
 ! A12   A(5,4,7)              127.033          calculate D2E/DX2 analytically  !
 ! A13   A(1,5,4)              108.9162         calculate D2E/DX2 analytically  !
 ! A14   A(1,5,12)             121.0248         calculate D2E/DX2 analytically  !
 ! A15   A(4,5,12)             130.059          calculate D2E/DX2 analytically  !
 ! A16   A(2,8,9)              120.3103         calculate D2E/DX2 analytically  !
 ! A17   A(2,8,10)             107.6018         calculate D2E/DX2 analytically  !
 ! A18   A(9,8,10)             132.0879         calculate D2E/DX2 analytically  !
 ! A19   A(8,10,11)             96.9873         calculate D2E/DX2 analytically  !
 ! A20   A(1,11,10)            131.4287         calculate D2E/DX2 analytically  !
 ! D1    D(5,1,2,3)              0.0042         calculate D2E/DX2 analytically  !
 ! D2    D(5,1,2,8)           -179.9996         calculate D2E/DX2 analytically  !
 ! D3    D(11,1,2,3)          -179.988          calculate D2E/DX2 analytically  !
 ! D4    D(11,1,2,8)             0.0082         calculate D2E/DX2 analytically  !
 ! D5    D(2,1,5,4)             -0.0041         calculate D2E/DX2 analytically  !
 ! D6    D(2,1,5,12)          -179.9979         calculate D2E/DX2 analytically  !
 ! D7    D(11,1,5,4)           179.9742         calculate D2E/DX2 analytically  !
 ! D8    D(11,1,5,12)           -0.0195         calculate D2E/DX2 analytically  !
 ! D9    D(2,1,11,10)           -0.0097         calculate D2E/DX2 analytically  !
 ! D10   D(5,1,11,10)         -179.989          calculate D2E/DX2 analytically  !
 ! D11   D(1,2,3,4)             -0.0026         calculate D2E/DX2 analytically  !
 ! D12   D(1,2,3,6)            179.939          calculate D2E/DX2 analytically  !
 ! D13   D(8,2,3,4)           -179.9971         calculate D2E/DX2 analytically  !
 ! D14   D(8,2,3,6)             -0.0556         calculate D2E/DX2 analytically  !
 ! D15   D(1,2,8,9)            179.9946         calculate D2E/DX2 analytically  !
 ! D16   D(1,2,8,10)            -0.0067         calculate D2E/DX2 analytically  !
 ! D17   D(3,2,8,9)             -0.0108         calculate D2E/DX2 analytically  !
 ! D18   D(3,2,8,10)           179.9879         calculate D2E/DX2 analytically  !
 ! D19   D(2,3,4,5)              0.0            calculate D2E/DX2 analytically  !
 ! D20   D(2,3,4,7)           -179.9965         calculate D2E/DX2 analytically  !
 ! D21   D(6,3,4,5)           -179.9326         calculate D2E/DX2 analytically  !
 ! D22   D(6,3,4,7)              0.071          calculate D2E/DX2 analytically  !
 ! D23   D(3,4,5,1)              0.0026         calculate D2E/DX2 analytically  !
 ! D24   D(3,4,5,12)           179.9956         calculate D2E/DX2 analytically  !
 ! D25   D(7,4,5,1)            179.999          calculate D2E/DX2 analytically  !
 ! D26   D(7,4,5,12)            -0.008          calculate D2E/DX2 analytically  !
 ! D27   D(2,8,10,11)            0.0013         calculate D2E/DX2 analytically  !
 ! D28   D(9,8,10,11)          179.9998         calculate D2E/DX2 analytically  !
 ! D29   D(8,10,11,1)            0.0059         calculate D2E/DX2 analytically  !
 --------------------------------------------------------------------------------
 Trust Radius=3.00D-01 FncErr=5.00D-06 GrdErr=5.00D-06 EigMax=2.50D+02 EigMin=1.00D-04
 Number of steps in this run=     72 maximum allowed number of steps=    100.
 Search for a saddle point of order  1.
 GradGradGradGradGradGradGradGradGradGradGradGradGradGradGradGradGradGrad

                          Input orientation:                          
 ---------------------------------------------------------------------
 Center     Atomic      Atomic             Coordinates (Angstroms)
 Number     Number       Type             X           Y           Z
 ---------------------------------------------------------------------
      1          7           0       -0.591409    0.990884    0.000037
      2          7           0        0.000204   -0.212177    0.000050
      3          6           0       -0.911502   -1.206272   -0.000004
      4          6           0       -2.153088   -0.596002    0.000005
      5          6           0       -1.901258    0.792020    0.000067
      6          1           0       -0.611941   -2.244076   -0.000984
      7          1           0       -3.116707   -1.081699    0.000025
      8          6           0        1.451771   -0.066212    0.000027
      9          8           0        2.167087   -1.048867    0.000133
     10          8           0        1.714907    1.186829   -0.000142
     11          1           0        0.486297    1.606205   -0.000166
     12          1           0       -2.590713    1.623722    0.000029
 ---------------------------------------------------------------------
                    Distance matrix (angstroms):
                    1          2          3          4          5
     1  N    0.000000
     2  N    1.340657   0.000000
     3  C    2.220350   1.348863   0.000000
     4  C    2.226443   2.187233   1.383461   0.000000
     5  C    1.324859   2.150342   2.229975   1.410682   0.000000
     6  H    3.235025   2.122107   1.080174   2.256387   3.298518
     7  H    3.266914   3.235924   2.208721   1.079103   2.233414
     8  C    2.300443   1.458887   2.623889   3.643581   3.461122
     9  O    3.430727   2.322807   3.082610   4.343846   4.465456
    10  O    2.314625   2.213012   3.553162   4.259093   3.637654
    11  H    1.240996   1.882233   3.140680   3.437451   2.522561
    12  H    2.097069   3.175433   3.290686   2.262452   1.080313
                    6          7          8          9         10
     6  H    0.000000
     7  H    2.761336   0.000000
     8  C    3.000333   4.679979   0.000000
     9  O    3.025148   5.283896   1.215437   0.000000
    10  O    4.145519   5.337669   1.280372   2.280965   0.000000
    11  H    4.003847   4.495160   1.931093   3.142366   1.298214
    12  H    4.344583   2.756079   4.381501   5.457050   4.327729
                   11         12
    11  H    0.000000
    12  H    3.077060   0.000000
 Stoichiometry    C4H4N2O2(1-,2)
 Framework group  C1[X(C4H4N2O2)]
 Deg. of freedom    30
 Full point group                 C1      NOp   1
 Largest Abelian subgroup         C1      NOp   1
 Largest concise Abelian subgroup C1      NOp   1
                         Standard orientation:                         
 ---------------------------------------------------------------------
 Center     Atomic      Atomic             Coordinates (Angstroms)
 Number     Number       Type             X           Y           Z
 ---------------------------------------------------------------------
      1          7           0       -0.591409   -0.990884   -0.000037
      2          7           0        0.000204    0.212177   -0.000050
      3          6           0       -0.911502    1.206272    0.000004
      4          6           0       -2.153088    0.596002   -0.000005
      5          6           0       -1.901258   -0.792020   -0.000067
      6          1           0       -0.611941    2.244076    0.000984
      7          1           0       -3.116707    1.081699   -0.000025
      8          6           0        1.451771    0.066212   -0.000027
      9          8           0        2.167087    1.048867   -0.000133
     10          8           0        1.714907   -1.186829    0.000142
     11          1           0        0.486297   -1.606205    0.000166
     12          1           0       -2.590713   -1.623722   -0.000029
 ---------------------------------------------------------------------
 Rotational constants (GHZ):           5.3023875           1.8165715           1.3530302
 Standard basis: 6-31+G(d,p) (6D, 7F)
 There are   172 symmetry adapted cartesian basis functions of A   symmetry.
 There are   172 symmetry adapted basis functions of A   symmetry.
   172 basis functions,   284 primitive gaussians,   172 cartesian basis functions
    30 alpha electrons       29 beta electrons
       nuclear repulsion energy       362.9101538526 Hartrees.
 NAtoms=   12 NActive=   12 NUniq=   12 SFac= 1.00D+00 NAtFMM=   60 NAOKFM=F Big=F
 Integral buffers will be    131072 words long.
 Raffenetti 2 integral format.
 Two-electron integral symmetry is turned on.
 Force inversion solution in PCM.
 ------------------------------------------------------------------------------
 Polarizable Continuum Model (PCM)
 =================================
 Model                : PCM.
 Atomic radii         : SMD-Coulomb.
 Polarization charges : Total charges.
 Charge compensation  : None.
 Solution method      : Matrix inversion.
 Cavity type          : VdW (van der Waals Surface) (Alpha=1.000).
 Cavity algorithm     : GePol (No added spheres)
                        Default sphere list used, NSphG=   12.
                        Lebedev-Laikov grids with approx.  5.0 points / Ang**2.
                        Smoothing algorithm: York/Karplus (Gamma=1.0000).
                        Polarization charges: spherical gaussians, with
                                              point-specific exponents (IZeta= 3).
                        Self-potential: point-specific (ISelfS= 7).
                        Self-field    : sphere-specific E.n sum rule (ISelfD= 2).
 1st derivatives      : Analytical E(r).r(x)/FMM algorithm (CHGder, D1EAlg=3).
                        Cavity 1st derivative terms included.
 2nd derivatives      : Analytical E(r).r(xy)/FMM algorithm (CHGder, D2EAlg=3).
                        Cavity 2nd derivative terms included.
 Solvent              : Water, Eps=  78.355300 Eps(inf)=   1.777849
 ------------------------------------------------------------------------------
 Spheres list:
 ISph  on   Nord     Re0    Alpha      Xe            Ye            Ze
    1   N      1    1.8900  1.000     -0.591409     -0.990884     -0.000037
    2   N      2    1.8900  1.000      0.000204      0.212177     -0.000050
    3   C      3    1.8500  1.000     -0.911502      1.206272      0.000004
    4   C      4    1.8500  1.000     -2.153088      0.596002     -0.000005
    5   C      5    1.8500  1.000     -1.901258     -0.792020     -0.000067
    6   H      6    1.2000  1.000     -0.611941      2.244076      0.000984
    7   H      7    1.2000  1.000     -3.116707      1.081699     -0.000025
    8   C      8    1.8500  1.000      1.451771      0.066212     -0.000027
    9   O      9    1.5200  1.000      2.167087      1.048867     -0.000133
   10   O     10    1.5200  1.000      1.714907     -1.186829      0.000142
   11   H     11    1.2000  1.000      0.486297     -1.606205      0.000166
   12   H     12    1.2000  1.000     -2.590713     -1.623722     -0.000029
 ------------------------------------------------------------------------------
 ------------------------------------------------------------------------------
 Atomic radii for non-electrostatic terms: SMD-CDS.
 ------------------------------------------------------------------------------
 Nuclear repulsion after PCM non-electrostatic terms =      362.9185040076 Hartrees.
 One-electron integrals computed using PRISM.
 NBasis=   172 RedAO= T EigKep=  4.39D-05  NBF=   172
 NBsUse=   172 1.00D-06 EigRej= -1.00D+00 NBFU=   172
 ExpMin= 4.38D-02 ExpMax= 5.48D+03 ExpMxC= 8.25D+02 IAcc=3 IRadAn=         5 AccDes= 0.00D+00
 Harris functional with IExCor= 1009 and IRadAn=       5 diagonalized for initial guess.
 HarFok:  IExCor= 1009 AccDes= 0.00D+00 IRadAn=         5 IDoV= 1 UseB2=F ITyADJ=14
 ICtDFT=  3500011 ScaDFX=  1.000000  1.000000  1.000000  1.000000
 FoFCou: FMM=F IPFlag=           0 FMFlag=      100000 FMFlg1=           0
         NFxFlg=           0 DoJE=T BraDBF=F KetDBF=T FulRan=T
         wScrn=  0.000000 ICntrl=       500 IOpCl=  0 I1Cent=   200000004 NGrid=           0
         NMat0=    1 NMatS0=      1 NMatT0=    0 NMatD0=    1 NMtDS0=    0 NMtDT0=    0
 Petite list used in FoFCou.
 Initial guess <Sx>= 0.0000 <Sy>= 0.0000 <Sz>= 0.5000 <S**2>= 0.7500 S= 0.5000
 Keep R1 and R2 ints in memory in canonical form, NReq=241382590.
 Requested convergence on RMS density matrix=1.00D-08 within 128 cycles.
 Requested convergence on MAX density matrix=1.00D-06.
 Requested convergence on             energy=1.00D-06.
 No special actions if energy rises.
 Inv3:  Mode=1 IEnd=     3145728.
 Iteration    1 A*A^-1 deviation from unit magnitude is 3.11D-15 for    982.
 Iteration    1 A*A^-1 deviation from orthogonality  is 1.83D-15 for    806    162.
 Iteration    1 A^-1*A deviation from unit magnitude is 3.33D-15 for   1024.
 Iteration    1 A^-1*A deviation from orthogonality  is 1.82D-15 for    818    124.
 Error on total polarization charges =  0.06228
 SCF Done:  E(UM062X) =  -414.689995270     A.U. after   17 cycles
            NFock= 17  Conv=0.93D-08     -V/T= 2.0074
 <Sx>= 0.0000 <Sy>= 0.0000 <Sz>= 0.5000 <S**2>= 0.7597 S= 0.5049
 <L.S>= 0.000000000000E+00
 SMD-CDS (non-electrostatic) energy       (kcal/mol) =       5.24
 (included in total energy above)
 Annihilation of the first spin contaminant:
 S**2 before annihilation     0.7597,   after     0.7500
 DoSCS=F DFT=T ScalE2(SS,OS)=  1.000000  1.000000
 Range of M.O.s used for correlation:     1   172
 NBasis=   172 NAE=    30 NBE=    29 NFC=     0 NFV=     0
 NROrb=    172 NOA=    30 NOB=    29 NVA=   142 NVB=   143

 **** Warning!!: The largest alpha MO coefficient is  0.52126449D+02


 **** Warning!!: The largest beta MO coefficient is  0.57367852D+02

 Symmetrizing basis deriv contribution to polar:
 IMax=3 JMax=2 DiffMx= 0.00D+00
 G2DrvN: will do    13 centers at a time, making    1 passes.
 Calling FoFCou, ICntrl=  3107 FMM=F I1Cent=   0 AccDes= 0.00D+00.
 NEqPCM:  Using equilibrium solvation (IEInf=0, Eps=  78.3553, EpsInf=   1.7778)
 G2PCM: DoFxE=T DoFxN=T DoGrad=T DoDP/DQ/DG/TGxP=FFFF NFrqRd=   0 IEInf=0 SqF1=F DoCFld=F IF1Alg=4.
 End of G2Drv F.D. properties file   721 does not exist.
 End of G2Drv F.D. properties file   722 does not exist.
 End of G2Drv F.D. properties file   788 does not exist.
          IDoAtm=111111111111
 NEqPCM:  Using equilibrium solvation (IEInf=0, Eps=  78.3553, EpsInf=   1.7778)
          Differentiating once with respect to nuclear coordinates.
 Keep R1 and R2 ints in memory in canonical form, NReq=241324757.
          There are    39 degrees of freedom in the 1st order CPHF.  IDoFFX=6 NUNeed=     0.
     33 vectors produced by pass  0 Test12= 2.16D-14 2.56D-09 XBig12= 3.30D-01 1.38D-01.
 AX will form    33 AO Fock derivatives at one time.
     33 vectors produced by pass  1 Test12= 2.16D-14 2.56D-09 XBig12= 2.76D-02 6.61D-02.
     33 vectors produced by pass  2 Test12= 2.16D-14 2.56D-09 XBig12= 1.77D-03 1.09D-02.
     33 vectors produced by pass  3 Test12= 2.16D-14 2.56D-09 XBig12= 3.09D-05 1.19D-03.
     33 vectors produced by pass  4 Test12= 2.16D-14 2.56D-09 XBig12= 3.62D-07 1.13D-04.
     33 vectors produced by pass  5 Test12= 2.16D-14 2.56D-09 XBig12= 3.66D-09 8.27D-06.
     33 vectors produced by pass  6 Test12= 2.16D-14 2.56D-09 XBig12= 3.02D-11 7.36D-07.
     25 vectors produced by pass  7 Test12= 2.16D-14 2.56D-09 XBig12= 1.92D-13 5.15D-08.
      4 vectors produced by pass  8 Test12= 2.16D-14 2.56D-09 XBig12= 1.26D-15 4.84D-09.
 InvSVY:  IOpt=1 It=  1 EMax= 2.33D-15
 Solved reduced A of dimension   260 with    33 vectors.
 End of Minotr F.D. properties file   721 does not exist.
 End of Minotr F.D. properties file   722 does not exist.
 End of Minotr F.D. properties file   788 does not exist.

 **********************************************************************

            Population analysis using the SCF density.

 **********************************************************************

 Orbital symmetries:
 Alpha Orbitals:
       Occupied  (A) (A) (A) (A) (A) (A) (A) (A) (A) (A) (A) (A)
                 (A) (A) (A) (A) (A) (A) (A) (A) (A) (A) (A) (A)
                 (A) (A) (A) (A) (A) (A)
       Virtual   (A) (A) (A) (A) (A) (A) (A) (A) (A) (A) (A) (A)
                 (A) (A) (A) (A) (A) (A) (A) (A) (A) (A) (A) (A)
                 (A) (A) (A) (A) (A) (A) (A) (A) (A) (A) (A) (A)
                 (A) (A) (A) (A) (A) (A) (A) (A) (A) (A) (A) (A)
                 (A) (A) (A) (A) (A) (A) (A) (A) (A) (A) (A) (A)
                 (A) (A) (A) (A) (A) (A) (A) (A) (A) (A) (A) (A)
                 (A) (A) (A) (A) (A) (A) (A) (A) (A) (A) (A) (A)
                 (A) (A) (A) (A) (A) (A) (A) (A) (A) (A) (A) (A)
                 (A) (A) (A) (A) (A) (A) (A) (A) (A) (A) (A) (A)
                 (A) (A) (A) (A) (A) (A) (A) (A) (A) (A) (A) (A)
                 (A) (A) (A) (A) (A) (A) (A) (A) (A) (A) (A) (A)
                 (A) (A) (A) (A) (A) (A) (A) (A) (A) (A)
 Beta  Orbitals:
       Occupied  (A) (A) (A) (A) (A) (A) (A) (A) (A) (A) (A) (A)
                 (A) (A) (A) (A) (A) (A) (A) (A) (A) (A) (A) (A)
                 (A) (A) (A) (A) (A)
       Virtual   (A) (A) (A) (A) (A) (A) (A) (A) (A) (A) (A) (A)
                 (A) (A) (A) (A) (A) (A) (A) (A) (A) (A) (A) (A)
                 (A) (A) (A) (A) (A) (A) (A) (A) (A) (A) (A) (A)
                 (A) (A) (A) (A) (A) (A) (A) (A) (A) (A) (A) (A)
                 (A) (A) (A) (A) (A) (A) (A) (A) (A) (A) (A) (A)
                 (A) (A) (A) (A) (A) (A) (A) (A) (A) (A) (A) (A)
                 (A) (A) (A) (A) (A) (A) (A) (A) (A) (A) (A) (A)
                 (A) (A) (A) (A) (A) (A) (A) (A) (A) (A) (A) (A)
                 (A) (A) (A) (A) (A) (A) (A) (A) (A) (A) (A) (A)
                 (A) (A) (A) (A) (A) (A) (A) (A) (A) (A) (A) (A)
                 (A) (A) (A) (A) (A) (A) (A) (A) (A) (A) (A) (A)
                 (A) (A) (A) (A) (A) (A) (A) (A) (A) (A) (A)
 The electronic state is 2-A.
 Alpha  occ. eigenvalues --  -19.63195 -19.61296 -14.81569 -14.77695 -10.67646
 Alpha  occ. eigenvalues --  -10.55541 -10.55015 -10.53196  -1.22210  -1.15028
 Alpha  occ. eigenvalues --   -1.11165  -0.91686  -0.87624  -0.71260  -0.68388
 Alpha  occ. eigenvalues --   -0.64117  -0.60311  -0.56003  -0.53473  -0.51449
 Alpha  occ. eigenvalues --   -0.49120  -0.48275  -0.47167  -0.44138  -0.37718
 Alpha  occ. eigenvalues --   -0.37121  -0.35095  -0.33069  -0.31131  -0.10889
 Alpha virt. eigenvalues --    0.02860   0.04633   0.05091   0.05666   0.06586
 Alpha virt. eigenvalues --    0.07263   0.07818   0.08224   0.10688   0.11066
 Alpha virt. eigenvalues --    0.11343   0.12130   0.13264   0.13639   0.15771
 Alpha virt. eigenvalues --    0.17885   0.17960   0.18647   0.21293   0.21803
 Alpha virt. eigenvalues --    0.22496   0.23275   0.24201   0.24984   0.26138
 Alpha virt. eigenvalues --    0.27034   0.27495   0.27980   0.28415   0.29597
 Alpha virt. eigenvalues --    0.30222   0.30229   0.32427   0.33194   0.34268
 Alpha virt. eigenvalues --    0.36243   0.36308   0.36638   0.40042   0.41450
 Alpha virt. eigenvalues --    0.42556   0.48090   0.49922   0.52165   0.55157
 Alpha virt. eigenvalues --    0.68528   0.73795   0.76377   0.77119   0.77517
 Alpha virt. eigenvalues --    0.79931   0.81575   0.86746   0.88522   0.91792
 Alpha virt. eigenvalues --    0.92870   0.95334   0.97601   0.99144   1.01158
 Alpha virt. eigenvalues --    1.02280   1.02425   1.07581   1.16655   1.18283
 Alpha virt. eigenvalues --    1.20714   1.24543   1.25205   1.26270   1.28130
 Alpha virt. eigenvalues --    1.28979   1.32375   1.34022   1.34798   1.37983
 Alpha virt. eigenvalues --    1.39096   1.40786   1.41546   1.45384   1.46267
 Alpha virt. eigenvalues --    1.49001   1.51167   1.53377   1.58159   1.60180
 Alpha virt. eigenvalues --    1.65513   1.70680   1.74055   1.81013   1.82958
 Alpha virt. eigenvalues --    1.85825   1.92248   1.95273   1.96559   1.99386
 Alpha virt. eigenvalues --    1.99464   2.02487   2.07362   2.08119   2.13337
 Alpha virt. eigenvalues --    2.15402   2.18540   2.20465   2.24762   2.31490
 Alpha virt. eigenvalues --    2.33609   2.38206   2.39794   2.42741   2.44602
 Alpha virt. eigenvalues --    2.46752   2.53091   2.53651   2.54767   2.58143
 Alpha virt. eigenvalues --    2.64947   2.65283   2.73562   2.78724   2.81226
 Alpha virt. eigenvalues --    2.83346   2.85975   2.88579   2.97361   3.05876
 Alpha virt. eigenvalues --    3.14861   3.18977   3.24338   3.28707   3.29336
 Alpha virt. eigenvalues --    3.33609   3.53099   3.68744   3.83270   4.15686
 Alpha virt. eigenvalues --    4.24357   4.39129   4.46308   4.56551   4.66741
 Alpha virt. eigenvalues --    4.72270   4.82475
  Beta  occ. eigenvalues --  -19.63140 -19.61111 -14.81459 -14.77310 -10.67523
  Beta  occ. eigenvalues --  -10.55404 -10.54749 -10.53267  -1.21645  -1.14336
  Beta  occ. eigenvalues --   -1.10749  -0.90731  -0.86950  -0.70452  -0.67941
  Beta  occ. eigenvalues --   -0.63456  -0.59670  -0.54321  -0.52993  -0.51026
  Beta  occ. eigenvalues --   -0.48857  -0.46781  -0.46645  -0.43723  -0.36788
  Beta  occ. eigenvalues --   -0.36113  -0.34712  -0.30286  -0.28997
  Beta virt. eigenvalues --    0.02118   0.02894   0.04084   0.04492   0.04850
  Beta virt. eigenvalues --    0.06075   0.06721   0.07342   0.08844   0.09441
  Beta virt. eigenvalues --    0.10446   0.10513   0.11140   0.13097   0.14317
  Beta virt. eigenvalues --    0.14467   0.16805   0.18224   0.18231   0.20895
  Beta virt. eigenvalues --    0.20976   0.22466   0.23147   0.23607   0.24848
  Beta virt. eigenvalues --    0.25884   0.26995   0.27219   0.27339   0.28510
  Beta virt. eigenvalues --    0.29546   0.29935   0.30013   0.32603   0.33226
  Beta virt. eigenvalues --    0.33941   0.35901   0.36022   0.36451   0.39659
  Beta virt. eigenvalues --    0.41173   0.42093   0.48104   0.50167   0.52365
  Beta virt. eigenvalues --    0.55200   0.68715   0.74614   0.77555   0.77619
  Beta virt. eigenvalues --    0.77665   0.80568   0.82320   0.86831   0.88852
  Beta virt. eigenvalues --    0.91866   0.93129   0.95650   0.97776   1.00547
  Beta virt. eigenvalues --    1.01275   1.02395   1.03294   1.07758   1.16743
  Beta virt. eigenvalues --    1.18271   1.21337   1.25177   1.25705   1.26481
  Beta virt. eigenvalues --    1.28449   1.29832   1.32480   1.34597   1.34812
  Beta virt. eigenvalues --    1.38076   1.39943   1.41633   1.42175   1.45428
  Beta virt. eigenvalues --    1.47136   1.50279   1.51256   1.54324   1.58561
  Beta virt. eigenvalues --    1.60474   1.65652   1.70770   1.74357   1.81209
  Beta virt. eigenvalues --    1.83413   1.86185   1.92483   1.95631   1.96975
  Beta virt. eigenvalues --    1.99664   2.00236   2.02660   2.07981   2.08774
  Beta virt. eigenvalues --    2.13685   2.15968   2.19174   2.20706   2.25949
  Beta virt. eigenvalues --    2.32095   2.34386   2.38864   2.40341   2.43295
  Beta virt. eigenvalues --    2.45131   2.47352   2.53863   2.54084   2.55380
  Beta virt. eigenvalues --    2.58555   2.65646   2.66373   2.74655   2.79613
  Beta virt. eigenvalues --    2.81896   2.84403   2.86718   2.89339   2.97912
  Beta virt. eigenvalues --    3.06290   3.15295   3.19654   3.24988   3.29236
  Beta virt. eigenvalues --    3.29735   3.33752   3.53910   3.69042   3.83999
  Beta virt. eigenvalues --    4.15768   4.24544   4.39468   4.46870   4.57974
  Beta virt. eigenvalues --    4.68233   4.72180   4.83628
          Condensed to atoms (all electrons):
               1          2          3          4          5          6
     1  N    7.340650  -0.080097   0.066766  -0.146618   0.069077   0.022430
     2  N   -0.080097   7.318222   0.143878  -0.119585   0.150121  -0.050474
     3  C    0.066766   0.143878   5.788775   0.206628  -0.160393   0.408525
     4  C   -0.146618  -0.119585   0.206628   5.383784   0.433521  -0.036026
     5  C    0.069077   0.150121  -0.160393   0.433521   5.498971  -0.004548
     6  H    0.022430  -0.050474   0.408525  -0.036026  -0.004548   0.458088
     7  H    0.014084  -0.009360  -0.000310   0.358930  -0.024390  -0.000381
     8  C   -0.079882   0.250466  -0.103410  -0.014040   0.011327  -0.002057
     9  O    0.038950  -0.180698  -0.027830   0.016393  -0.005014  -0.000723
    10  O   -0.050437  -0.173871   0.017150   0.008985  -0.011564  -0.000336
    11  H    0.199426  -0.030993  -0.007560   0.002872   0.009376  -0.000013
    12  H   -0.054543   0.013711   0.008952  -0.038953   0.402929  -0.000085
               7          8          9         10         11         12
     1  N    0.014084  -0.079882   0.038950  -0.050437   0.199426  -0.054543
     2  N   -0.009360   0.250466  -0.180698  -0.173871  -0.030993   0.013711
     3  C   -0.000310  -0.103410  -0.027830   0.017150  -0.007560   0.008952
     4  C    0.358930  -0.014040   0.016393   0.008985   0.002872  -0.038953
     5  C   -0.024390   0.011327  -0.005014  -0.011564   0.009376   0.402929
     6  H   -0.000381  -0.002057  -0.000723  -0.000336  -0.000013  -0.000085
     7  H    0.472074  -0.002013  -0.000056   0.000156  -0.000044  -0.000506
     8  C   -0.002013   4.513099   0.400625   0.257646  -0.012648   0.000677
     9  O   -0.000056   0.400625   8.604368  -0.106921   0.003238   0.000050
    10  O    0.000156   0.257646  -0.106921   8.716333   0.101744   0.000070
    11  H   -0.000044  -0.012648   0.003238   0.101744   0.268602  -0.000263
    12  H   -0.000506   0.000677   0.000050   0.000070  -0.000263   0.472917
          Atomic-Atomic Spin Densities.
               1          2          3          4          5          6
     1  N    0.607468  -0.219935   0.192619  -0.064163  -0.270832  -0.001859
     2  N   -0.219935   0.310088  -0.315776   0.068803   0.112649   0.003458
     3  C    0.192619  -0.315776   0.826753  -0.120574  -0.176788  -0.003380
     4  C   -0.064163   0.068803  -0.120574  -0.114102   0.126661  -0.000458
     5  C   -0.270832   0.112649  -0.176788   0.126661   0.435320   0.001130
     6  H   -0.001859   0.003458  -0.003380  -0.000458   0.001130  -0.018224
     7  H   -0.000941   0.000494  -0.001527  -0.003652   0.006159   0.000027
     8  C   -0.063794   0.144267  -0.060358   0.007734   0.017608   0.000924
     9  O    0.013863  -0.044185   0.031481  -0.004715  -0.005256   0.000280
    10  O    0.036841  -0.038157   0.015583  -0.002656  -0.008330   0.000147
    11  H    0.000074  -0.005275   0.001985   0.000108  -0.002177   0.000001
    12  H    0.001952  -0.000852  -0.002395   0.007793  -0.006411   0.000001
               7          8          9         10         11         12
     1  N   -0.000941  -0.063794   0.013863   0.036841   0.000074   0.001952
     2  N    0.000494   0.144267  -0.044185  -0.038157  -0.005275  -0.000852
     3  C   -0.001527  -0.060358   0.031481   0.015583   0.001985  -0.002395
     4  C   -0.003652   0.007734  -0.004715  -0.002656   0.000108   0.007793
     5  C    0.006159   0.017608  -0.005256  -0.008330  -0.002177  -0.006411
     6  H    0.000027   0.000924   0.000280   0.000147   0.000001   0.000001
     7  H    0.002105  -0.000181   0.000006   0.000000   0.000001   0.000002
     8  C   -0.000181   0.268069  -0.093097  -0.061390   0.000191   0.000208
     9  O    0.000006  -0.093097   0.167086   0.016724  -0.000078  -0.000005
    10  O    0.000000  -0.061390   0.016724   0.063209   0.004349   0.000032
    11  H    0.000001   0.000191  -0.000078   0.004349  -0.006562   0.000037
    12  H    0.000002   0.000208  -0.000005   0.000032   0.000037  -0.011201
 Mulliken charges and spin densities:
               1          2
     1  N   -0.339805   0.231294
     2  N   -0.231320   0.015579
     3  C   -0.341170   0.387623
     4  C   -0.055892  -0.099221
     5  C   -0.369413   0.229734
     6  H    0.205601  -0.017954
     7  H    0.191816   0.002494
     8  C    0.780210   0.160181
     9  O   -0.742383   0.082103
    10  O   -0.758953   0.026352
    11  H    0.466264  -0.007345
    12  H    0.195044  -0.010840
 Sum of Mulliken charges =  -1.00000   1.00000
 Mulliken charges and spin densities with hydrogens summed into heavy atoms:
               1          2
     1  N    0.126459   0.223949
     2  N   -0.231320   0.015579
     3  C   -0.135569   0.369669
     4  C    0.135924  -0.096727
     5  C   -0.174368   0.218894
     8  C    0.780210   0.160181
     9  O   -0.742383   0.082103
    10  O   -0.758953   0.026352
 APT charges:
               1
     1  N   -0.399012
     2  N   -0.252913
     3  C   -0.703559
     4  C   -0.572481
     5  C   -0.736365
     6  H    0.527285
     7  H    0.719980
     8  C    0.520238
     9  O   -0.578757
    10  O   -0.673727
    11  H    0.479094
    12  H    0.670218
 Sum of APT charges =  -1.00000
 APT charges with hydrogens summed into heavy atoms:
               1
     1  N    0.080082
     2  N   -0.252913
     3  C   -0.176274
     4  C    0.147498
     5  C   -0.066148
     8  C    0.520238
     9  O   -0.578757
    10  O   -0.673727
 Electronic spatial extent (au):  <R**2>=            847.5411
 Charge=             -1.0000 electrons
 Dipole moment (field-independent basis, Debye):
    X=             -7.1814    Y=             -0.9904    Z=              0.0021  Tot=              7.2494
 Quadrupole moment (field-independent basis, Debye-Ang):
   XX=            -69.0970   YY=            -52.9703   ZZ=            -52.2277
   XY=             -2.0165   XZ=             -0.0010   YZ=              0.0043
 Traceless Quadrupole moment (field-independent basis, Debye-Ang):
   XX=            -10.9986   YY=              5.1280   ZZ=              5.8706
   XY=             -2.0165   XZ=             -0.0010   YZ=              0.0043
 Octapole moment (field-independent basis, Debye-Ang**2):
  XXX=            -44.1530  YYY=             -4.7977  ZZZ=              0.0033  XYY=            -15.4931
  XXY=             -7.8590  XXZ=              0.0022  XZZ=             10.6222  YZZ=             -2.2927
  YYZ=              0.0109  XYZ=             -0.0003
 Hexadecapole moment (field-independent basis, Debye-Ang**3):
 XXXX=           -870.2537 YYYY=           -299.0960 ZZZZ=            -64.0123 XXXY=            -19.0568
 XXXZ=             -0.0003 YYYX=              0.5800 YYYZ=              0.0226 ZZZX=             -0.0034
 ZZZY=              0.0049 XXYY=           -206.3764 XXZZ=           -158.6761 YYZZ=            -71.0341
 XXYZ=              0.0066 YYXZ=             -0.0069 ZZXY=              0.9081
 N-N= 3.629185040076D+02 E-N=-1.706522602054D+03  KE= 4.116423959026D+02
  Exact polarizability:   0.000   0.000   0.000   0.000   0.000   0.000
 Approx polarizability: 124.239   5.754 102.396   0.001  -0.006  59.127
                          Isotropic Fermi Contact Couplings
        Atom                 a.u.       MegaHertz       Gauss      10(-4) cm-1
     1  N(14)              0.05519      17.83147       6.36271       5.94794
     2  N(14)             -0.00430      -1.38973      -0.49589      -0.46356
     3  C(13)              0.05086      57.17708      20.40220      19.07222
     4  C(13)             -0.02300     -25.85531      -9.22582      -8.62440
     5  C(13)              0.02667      29.98362      10.69890      10.00146
     6  H(1)              -0.00563     -25.17191      -8.98196      -8.39645
     7  H(1)               0.00058       2.57503       0.91883       0.85894
     8  C(13)              0.02598      29.20978      10.42278       9.74334
     9  O(17)              0.02135     -12.94162      -4.61789      -4.31686
    10  O(17)              0.00403      -2.44313      -0.87177      -0.81494
    11  H(1)              -0.00295     -13.19510      -4.70834      -4.40141
    12  H(1)              -0.00330     -14.76634      -5.26900      -4.92552
 --------------------------------------------------------
       Center         ----  Spin Dipole Couplings  ----
                      3XX-RR        3YY-RR        3ZZ-RR
 --------------------------------------------------------
     1   Atom       -0.291521     -0.279318      0.570839
     2   Atom       -0.106505     -0.117248      0.223753
     3   Atom       -0.172970     -0.161230      0.334200
     4   Atom        0.030312      0.029353     -0.059665
     5   Atom       -0.088813     -0.098022      0.186835
     6   Atom       -0.023225      0.023284     -0.000059
     7   Atom        0.001834      0.002957     -0.004791
     8   Atom       -0.091497     -0.108841      0.200338
     9   Atom       -0.173196     -0.179468      0.352665
    10   Atom       -0.065824     -0.074696      0.140520
    11   Atom        0.012860     -0.003505     -0.009355
    12   Atom       -0.002263      0.004184     -0.001921
 --------------------------------------------------------
                        XY            XZ            YZ
 --------------------------------------------------------
     1   Atom        0.001039     -0.000079     -0.000093
     2   Atom        0.000878      0.000060     -0.000041
     3   Atom       -0.000694     -0.000061     -0.000295
     4   Atom       -0.000167     -0.000006     -0.000005
     5   Atom        0.002240     -0.000022      0.000036
     6   Atom        0.012396      0.000003      0.000022
     7   Atom       -0.000525     -0.000002      0.000001
     8   Atom        0.002578      0.000027      0.000037
     9   Atom       -0.007085     -0.000008      0.000118
    10   Atom       -0.003707      0.000044      0.000053
    11   Atom       -0.014153     -0.000000     -0.000006
    12   Atom        0.017754     -0.000002      0.000002
 --------------------------------------------------------


 ---------------------------------------------------------------------------------
              Anisotropic Spin Dipole Couplings in Principal Axis System
 ---------------------------------------------------------------------------------

       Atom             a.u.   MegaHertz   Gauss  10(-4) cm-1        Axes

              Baa    -0.2916   -11.247    -4.013    -3.751  0.9964 -0.0843  0.0001
     1 N(14)  Bbb    -0.2792   -10.769    -3.843    -3.592  0.0843  0.9964  0.0001
              Bcc     0.5708    22.016     7.856     7.344 -0.0001 -0.0001  1.0000
 
              Baa    -0.1173    -4.525    -1.615    -1.509 -0.0809  0.9967  0.0001
     2 N(14)  Bbb    -0.1064    -4.105    -1.465    -1.369  0.9967  0.0809 -0.0002
              Bcc     0.2238     8.630     3.079     2.879  0.0002 -0.0001  1.0000
 
              Baa    -0.1730   -23.216    -8.284    -7.744  0.9983  0.0588  0.0002
     3 C(13)  Bbb    -0.1612   -21.630    -7.718    -7.215 -0.0588  0.9983  0.0006
              Bcc     0.3342    44.846    16.002    14.959 -0.0001 -0.0006  1.0000
 
              Baa    -0.0597    -8.006    -2.857    -2.671  0.0001  0.0001  1.0000
     4 C(13)  Bbb     0.0293     3.935     1.404     1.313  0.1667  0.9860 -0.0001
              Bcc     0.0303     4.071     1.453     1.358  0.9860 -0.1667 -0.0001
 
              Baa    -0.0985   -13.223    -4.718    -4.411 -0.2245  0.9745 -0.0001
     5 C(13)  Bbb    -0.0883   -11.849    -4.228    -3.952  0.9745  0.2245  0.0000
              Bcc     0.1868    25.071     8.946     8.363 -0.0001  0.0001  1.0000
 
              Baa    -0.0263   -14.044    -5.011    -4.685  0.9702 -0.2424  0.0001
     6 H(1)   Bbb    -0.0001    -0.031    -0.011    -0.010 -0.0003 -0.0008  1.0000
              Bcc     0.0264    14.076     5.023     4.695  0.2424  0.9702  0.0008
 
              Baa    -0.0048    -2.556    -0.912    -0.853  0.0003 -0.0001  1.0000
     7 H(1)   Bbb     0.0016     0.868     0.310     0.290  0.9302  0.3671 -0.0003
              Bcc     0.0032     1.688     0.602     0.563 -0.3671  0.9302  0.0002
 
              Baa    -0.1092   -14.656    -5.230    -4.889 -0.1440  0.9896 -0.0001
     8 C(13)  Bbb    -0.0911   -12.228    -4.363    -4.079  0.9896  0.1440 -0.0001
              Bcc     0.2003    26.883     9.593     8.967  0.0001  0.0001  1.0000
 
              Baa    -0.1841    13.320     4.753     4.443  0.5455  0.8381 -0.0002
     9 O(17)  Bbb    -0.1686    12.199     4.353     4.069  0.8381 -0.5455  0.0001
              Bcc     0.3527   -25.519    -9.106    -8.512 -0.0000  0.0002  1.0000
 
              Baa    -0.0760     5.502     1.963     1.835  0.3410  0.9401 -0.0003
    10 O(17)  Bbb    -0.0645     4.666     1.665     1.556  0.9401 -0.3410 -0.0001
              Bcc     0.1405   -10.168    -3.628    -3.392  0.0002  0.0002  1.0000
 
              Baa    -0.0117    -6.227    -2.222    -2.077  0.4997  0.8662  0.0023
    11 H(1)   Bbb    -0.0094    -4.991    -1.781    -1.665 -0.0012 -0.0019  1.0000
              Bcc     0.0210    11.218     4.003     3.742  0.8662 -0.4997  0.0001
 
              Baa    -0.0171    -9.115    -3.252    -3.040  0.7677 -0.6409  0.0002
    12 H(1)   Bbb    -0.0019    -1.025    -0.366    -0.342 -0.0001  0.0001  1.0000
              Bcc     0.0190    10.140     3.618     3.382  0.6409  0.7677  0.0000
 

 ---------------------------------------------------------------------------------

 D2PCM: PCM CHGder 2nd derivatives, FixD1E=F FixD2E=F DoIter=F DoCFld=F I1PDM=0
 Calling FoFJK, ICntrl=    100147 FMM=F ISym2X=0 I1Cent= 0 IOpClX= 1 NMat=1 NMatS=1 NMatT=0.
 ***** Axes restored to original set *****
 -------------------------------------------------------------------
 Center     Atomic                   Forces (Hartrees/Bohr)
 Number     Number              X              Y              Z
 -------------------------------------------------------------------
      1        7           0.036034907    0.043018151    0.000004305
      2        7           0.084568921    0.003932919   -0.000010018
      3        6          -0.008241204   -0.041017298   -0.000009732
      4        6          -0.011136348    0.021352996    0.000003986
      5        6          -0.050748073   -0.013753718   -0.000006482
      6        1          -0.000904485    0.000974407    0.000016060
      7        1          -0.001243626   -0.000175098   -0.000005288
      8        6          -0.085728712    0.000308603   -0.000002161
      9        8           0.035965133   -0.037089438    0.000001865
     10        8           0.015142007    0.028858382   -0.000002880
     11        1          -0.012980615   -0.005400159    0.000006422
     12        1          -0.000727907   -0.001009746    0.000003924
 -------------------------------------------------------------------
 Cartesian Forces:  Max     0.085728712 RMS     0.027230776
 FormGI is forming the generalized inverse of G from B-inverse, IUseBI=4.

 GradGradGradGradGradGradGradGradGradGradGradGradGradGradGradGradGradGrad
 Berny optimization.
 Internal  Forces:  Max     0.051158762 RMS     0.013225978
 Search for a saddle point.
 Step number   1 out of a maximum of   72
 All quantities printed in internal units (Hartrees-Bohrs-Radians)
 Swapping is turned off.
 Second derivative matrix not updated -- analytic derivatives used.
 ITU=  0
     Eigenvalues ---   -0.05318  -0.00157   0.00310   0.00808   0.01133
     Eigenvalues ---    0.01444   0.01817   0.02051   0.03739   0.05006
     Eigenvalues ---    0.09137   0.10309   0.11014   0.11315   0.14438
     Eigenvalues ---    0.17930   0.23514   0.23579   0.26544   0.28497
     Eigenvalues ---    0.31897   0.34845   0.38243   0.38336   0.38546
     Eigenvalues ---    0.43906   0.48977   0.52145   0.58681   0.82166
 Eigenvectors required to have negative eigenvalues:
                          R13       R3        A3        A2        A20
   1                    0.73015  -0.59440  -0.20442   0.17147  -0.10364
                          R12       R5        A16       A19       A18
   1                   -0.08658   0.07280  -0.06392  -0.05776   0.05326
 RFO step:  Lambda0=3.282913636D-04 Lambda=-2.57366974D-02.
 Linear search not attempted -- option 19 set.
 Maximum step size (   0.300) exceeded in Quadratic search.
    -- Step size scaled by   0.943
 Iteration  1 RMS(Cart)=  0.03861293 RMS(Int)=  0.02786454
 Iteration  2 RMS(Cart)=  0.00872487 RMS(Int)=  0.00420206
 Iteration  3 RMS(Cart)=  0.00031516 RMS(Int)=  0.00417956
 Iteration  4 RMS(Cart)=  0.00000583 RMS(Int)=  0.00417956
 Iteration  5 RMS(Cart)=  0.00000006 RMS(Int)=  0.00417956
 Variable       Old X    -DE/DX   Delta X   Delta X   Delta X     New X
                                 (Linear)    (Quad)   (Total)
    R1        2.53347   0.03175   0.00000   0.06774   0.07129   2.60477
    R2        2.50362   0.04600   0.00000   0.06654   0.06671   2.57033
    R3        2.34514  -0.01096   0.00000   0.00706   0.00701   2.35215
    R4        2.54898   0.03650   0.00000   0.06816   0.06918   2.61817
    R5        2.75690  -0.03927   0.00000  -0.19981  -0.19915   2.55775
    R6        2.61436   0.02400   0.00000   0.03229   0.03107   2.64544
    R7        2.04123  -0.00119   0.00000  -0.00475  -0.00475   2.03648
    R8        2.66580  -0.00611   0.00000  -0.03469  -0.03642   2.62938
    R9        2.03921   0.00119   0.00000   0.00316   0.00316   2.04237
   R10        2.04150  -0.00031   0.00000  -0.00133  -0.00133   2.04016
   R11        2.29684   0.05116   0.00000   0.06501   0.06501   2.36186
   R12        2.41955   0.03175   0.00000   0.06976   0.06872   2.48827
   R13        2.45327   0.00437   0.00000  -0.03772  -0.03921   2.41406
    A1        1.87716  -0.00298   0.00000  -0.01755  -0.01772   1.85943
    A2        1.63255  -0.00104   0.00000  -0.03347  -0.03418   1.59838
    A3        2.77348   0.00402   0.00000   0.05107   0.03074   2.80422
    A4        1.94237  -0.00846   0.00000  -0.01041  -0.01252   1.92985
    A5        1.92761   0.00421   0.00000   0.02418   0.02091   1.94852
    A6        2.41321   0.00425   0.00000  -0.01376  -0.01822   2.39499
    A7        1.85615  -0.00048   0.00000  -0.01372  -0.01180   1.84435
    A8        2.11839   0.00086   0.00000   0.00391   0.00294   2.12133
    A9        2.30865  -0.00038   0.00000   0.00982   0.00885   2.31751
   A10        1.84816   0.01103   0.00000   0.03028   0.02974   1.87790
   A11        2.21788  -0.00509   0.00000  -0.01664  -0.01638   2.20150
   A12        2.21714  -0.00594   0.00000  -0.01364  -0.01337   2.20377
   A13        1.90095   0.00088   0.00000   0.01141   0.01224   1.91318
   A14        2.11228   0.00078   0.00000  -0.00751  -0.00796   2.10432
   A15        2.26996  -0.00166   0.00000  -0.00390  -0.00431   2.26565
   A16        2.09981   0.00808   0.00000   0.04891   0.04840   2.14821
   A17        1.87801   0.00047   0.00000   0.03424   0.03516   1.91316
   A18        2.30537  -0.00855   0.00000  -0.08316  -0.08372   2.22165
   A19        1.69275  -0.00198   0.00000  -0.03456  -0.03562   1.65713
   A20        2.29386  -0.00166   0.00000   0.00961   0.01173   2.30560
    D1        0.00007  -0.00000   0.00000   0.01605   0.00878   0.00885
    D2       -3.14159  -0.00000   0.00000   0.13872   0.13246  -3.00913
    D3       -3.14138  -0.00000   0.00000  -0.11660  -0.11047   3.03133
    D4        0.00014  -0.00000   0.00000   0.00607   0.01321   0.01335
    D5       -0.00007   0.00000   0.00000  -0.01715  -0.01126  -0.01133
    D6       -3.14156  -0.00000   0.00000  -0.00530  -0.00305   3.13858
    D7        3.14114   0.00000   0.00000   0.35072   0.35616  -2.78588
    D8       -0.00034  -0.00000   0.00000   0.36258   0.36437   0.36403
    D9       -0.00017   0.00000   0.00000   0.03753   0.03269   0.03252
   D10       -3.14140   0.00000   0.00000  -0.31389  -0.31900   2.82278
   D11       -0.00004   0.00000   0.00000  -0.00817  -0.00289  -0.00294
   D12        3.14053   0.00001   0.00000  -0.00259  -0.00116   3.13937
   D13       -3.14154   0.00000   0.00000  -0.18085  -0.17255   2.96909
   D14       -0.00097   0.00000   0.00000  -0.17527  -0.17081  -0.17178
   D15        3.14150   0.00000   0.00000  -0.02879  -0.02932   3.11218
   D16       -0.00012   0.00000   0.00000  -0.04065  -0.04764  -0.04775
   D17       -0.00019   0.00000   0.00000   0.14292   0.14157   0.14138
   D18        3.14138   0.00001   0.00000   0.13106   0.12326  -3.01855
   D19       -0.00000  -0.00000   0.00000  -0.00242  -0.00403  -0.00403
   D20       -3.14153  -0.00000   0.00000  -0.00692  -0.00908   3.13257
   D21       -3.14042  -0.00001   0.00000  -0.00885  -0.00603   3.13674
   D22        0.00124  -0.00001   0.00000  -0.01335  -0.01109  -0.00985
   D23        0.00004   0.00000   0.00000   0.01222   0.00967   0.00971
   D24        3.14152   0.00000   0.00000  -0.00105   0.00047  -3.14120
   D25        3.14158   0.00000   0.00000   0.01672   0.01474  -3.12687
   D26       -0.00014   0.00000   0.00000   0.00345   0.00554   0.00540
   D27        0.00002  -0.00000   0.00000   0.04971   0.05342   0.05345
   D28        3.14159   0.00000   0.00000   0.03592   0.03414  -3.10746
   D29        0.00010   0.00000   0.00000  -0.06354  -0.06031  -0.06021
         Item               Value     Threshold  Converged?
 Maximum Force            0.051159     0.000450     NO 
 RMS     Force            0.013226     0.000300     NO 
 Maximum Displacement     0.155985     0.001800     NO 
 RMS     Displacement     0.044632     0.001200     NO 
 Predicted change in Energy=-1.405241D-02
 GradGradGradGradGradGradGradGradGradGradGradGradGradGradGradGradGradGrad

                          Input orientation:                          
 ---------------------------------------------------------------------
 Center     Atomic      Atomic             Coordinates (Angstroms)
 Number     Number       Type             X           Y           Z
 ---------------------------------------------------------------------
      1          7           0       -0.579940    1.029020   -0.072511
      2          7           0        0.040686   -0.201697   -0.082494
      3          6           0       -0.897006   -1.220235   -0.029082
      4          6           0       -2.143383   -0.584682    0.019384
      5          6           0       -1.916657    0.787979   -0.000941
      6          1           0       -0.603664   -2.257201   -0.029781
      7          1           0       -3.106676   -1.073030    0.060051
      8          6           0        1.385546   -0.083367    0.014052
      9          8           0        2.155711   -1.066840    0.055638
     10          8           0        1.717089    1.190831    0.031284
     11          1           0        0.513395    1.618143    0.010227
     12          1           0       -2.621453    1.605433    0.023250
 ---------------------------------------------------------------------
                    Distance matrix (angstroms):
                    1          2          3          4          5
     1  N    0.000000
     2  N    1.378383   0.000000
     3  C    2.271908   1.385474   0.000000
     4  C    2.248740   2.219733   1.399905   0.000000
     5  C    1.360159   2.194835   2.252422   1.391409   0.000000
     6  H    3.286584   2.154776   1.077659   2.273867   3.316309
     7  H    3.289465   3.268857   2.216361   1.080773   2.209801
     8  C    2.260096   1.353504   2.550367   3.564363   3.415262
     9  O    3.448600   2.289298   3.057743   4.326200   4.475236
    10  O    2.305060   2.182294   3.556737   4.249216   3.656151
    11  H    1.244706   1.882516   3.169725   3.451230   2.567965
    12  H    2.123487   3.219298   3.310718   2.241689   1.079608
                    6          7          8          9         10
     6  H    0.000000
     7  H    2.770451   0.000000
     8  C    2.946935   4.600175   0.000000
     9  O    3.006394   5.262393   1.249842   0.000000
    10  O    4.156747   5.328659   1.316738   2.300014   0.000000
    11  H    4.033324   4.511076   1.912014   3.147761   1.277466
    12  H    4.358236   2.722308   4.348353   5.473883   4.358315
                   11         12
    11  H    0.000000
    12  H    3.134900   0.000000
 Stoichiometry    C4H4N2O2(1-,2)
 Framework group  C1[X(C4H4N2O2)]
 Deg. of freedom    30
 Full point group                 C1      NOp   1
 Largest Abelian subgroup         C1      NOp   1
 Largest concise Abelian subgroup C1      NOp   1
                         Standard orientation:                         
 ---------------------------------------------------------------------
 Center     Atomic      Atomic             Coordinates (Angstroms)
 Number     Number       Type             X           Y           Z
 ---------------------------------------------------------------------
      1          7           0       -0.586922   -1.024151    0.054115
      2          7           0        0.041979    0.202145    0.079081
      3          6           0       -0.888135    1.227492    0.023513
      4          6           0       -2.138280    0.600929   -0.041975
      5          6           0       -1.921168   -0.773376   -0.029144
      6          1           0       -0.587727    2.262375    0.034534
      7          1           0       -3.097750    1.096200   -0.088828
      8          6           0        1.386903    0.075203   -0.004807
      9          8           0        2.164160    1.053597   -0.031665
     10          8           0        1.709877   -1.201104   -0.027778
     11          1           0        0.503135   -1.620221   -0.021839
     12          1           0       -2.631261   -1.585747   -0.066221
 ---------------------------------------------------------------------
 Rotational constants (GHZ):           5.1835415           1.8350215           1.3567660
 Standard basis: 6-31+G(d,p) (6D, 7F)
 There are   172 symmetry adapted cartesian basis functions of A   symmetry.
 There are   172 symmetry adapted basis functions of A   symmetry.
   172 basis functions,   284 primitive gaussians,   172 cartesian basis functions
    30 alpha electrons       29 beta electrons
       nuclear repulsion energy       361.6723461412 Hartrees.
 NAtoms=   12 NActive=   12 NUniq=   12 SFac= 1.00D+00 NAtFMM=   60 NAOKFM=F Big=F
 Integral buffers will be    131072 words long.
 Raffenetti 2 integral format.
 Two-electron integral symmetry is turned on.
 ------------------------------------------------------------------------------
 Polarizable Continuum Model (PCM)
 =================================
 Model                : PCM.
 Atomic radii         : SMD-Coulomb.
 Polarization charges : Total charges.
 Charge compensation  : None.
 Solution method      : Matrix inversion.
 Cavity type          : VdW (van der Waals Surface) (Alpha=1.000).
 Cavity algorithm     : GePol (No added spheres)
                        Default sphere list used, NSphG=   12.
                        Lebedev-Laikov grids with approx.  5.0 points / Ang**2.
                        Smoothing algorithm: York/Karplus (Gamma=1.0000).
                        Polarization charges: spherical gaussians, with
                                              point-specific exponents (IZeta= 3).
                        Self-potential: point-specific (ISelfS= 7).
                        Self-field    : sphere-specific E.n sum rule (ISelfD= 2).
 1st derivatives      : Analytical E(r).r(x)/FMM algorithm (CHGder, D1EAlg=3).
                        Cavity 1st derivative terms included.
 Solvent              : Water, Eps=  78.355300 Eps(inf)=   1.777849
 ------------------------------------------------------------------------------
 Spheres list:
 ISph  on   Nord     Re0    Alpha      Xe            Ye            Ze
    1   N      1    1.8900  1.000     -0.586922     -1.024151      0.054115
    2   N      2    1.8900  1.000      0.041979      0.202145      0.079081
    3   C      3    1.8500  1.000     -0.888135      1.227492      0.023513
    4   C      4    1.8500  1.000     -2.138280      0.600929     -0.041975
    5   C      5    1.8500  1.000     -1.921168     -0.773376     -0.029144
    6   H      6    1.2000  1.000     -0.587727      2.262375      0.034534
    7   H      7    1.2000  1.000     -3.097750      1.096200     -0.088828
    8   C      8    1.8500  1.000      1.386903      0.075203     -0.004807
    9   O      9    1.5200  1.000      2.164160      1.053597     -0.031665
   10   O     10    1.5200  1.000      1.709877     -1.201104     -0.027778
   11   H     11    1.2000  1.000      0.503135     -1.620221     -0.021839
   12   H     12    1.2000  1.000     -2.631261     -1.585747     -0.066221
 ------------------------------------------------------------------------------
 ------------------------------------------------------------------------------
 Atomic radii for non-electrostatic terms: SMD-CDS.
 ------------------------------------------------------------------------------
 Nuclear repulsion after PCM non-electrostatic terms =      361.6802155260 Hartrees.
 One-electron integrals computed using PRISM.
 NBasis=   172 RedAO= T EigKep=  4.38D-05  NBF=   172
 NBsUse=   172 1.00D-06 EigRej= -1.00D+00 NBFU=   172
 Initial guess from the checkpoint file:  "/scratch/gongke2021/bizuo-TS/Gau-25488.chk"
 B after Tr=     0.000000   -0.000000   -0.000000
         Rot=    0.999997   -0.000194   -0.000112    0.002267 Ang=  -0.26 deg.
 Initial guess <Sx>= 0.0000 <Sy>= 0.0000 <Sz>= 0.5000 <S**2>= 0.7597 S= 0.5049
 ExpMin= 4.38D-02 ExpMax= 5.48D+03 ExpMxC= 8.25D+02 IAcc=2 IRadAn=         4 AccDes= 0.00D+00
 Harris functional with IExCor= 1009 and IRadAn=       4 diagonalized for initial guess.
 HarFok:  IExCor= 1009 AccDes= 0.00D+00 IRadAn=         4 IDoV= 1 UseB2=F ITyADJ=14
 ICtDFT=  3500011 ScaDFX=  1.000000  1.000000  1.000000  1.000000
 FoFCou: FMM=F IPFlag=           0 FMFlag=      100000 FMFlg1=           0
         NFxFlg=           0 DoJE=T BraDBF=F KetDBF=T FulRan=T
         wScrn=  0.000000 ICntrl=       500 IOpCl=  0 I1Cent=   200000004 NGrid=           0
         NMat0=    1 NMatS0=      1 NMatT0=    0 NMatD0=    1 NMtDS0=    0 NMtDT0=    0
 Petite list used in FoFCou.
 Keep R1 and R2 ints in memory in canonical form, NReq=241382590.
 Requested convergence on RMS density matrix=1.00D-08 within 128 cycles.
 Requested convergence on MAX density matrix=1.00D-06.
 Requested convergence on             energy=1.00D-06.
 No special actions if energy rises.
 Inv3:  Mode=1 IEnd=     3170352.
 Iteration    1 A*A^-1 deviation from unit magnitude is 2.78D-15 for    253.
 Iteration    1 A*A^-1 deviation from orthogonality  is 1.96D-15 for    990    114.
 Iteration    1 A^-1*A deviation from unit magnitude is 2.66D-15 for   1000.
 Iteration    1 A^-1*A deviation from orthogonality  is 2.29D-15 for    810    124.
 Error on total polarization charges =  0.06085
 SCF Done:  E(UM062X) =  -414.702884065     A.U. after   17 cycles
            NFock= 17  Conv=0.56D-08     -V/T= 2.0080
 <Sx>= 0.0000 <Sy>= 0.0000 <Sz>= 0.5000 <S**2>= 0.7618 S= 0.5059
 <L.S>= 0.000000000000E+00
 SMD-CDS (non-electrostatic) energy       (kcal/mol) =       4.94
 (included in total energy above)
 Annihilation of the first spin contaminant:
 S**2 before annihilation     0.7618,   after     0.7501
 D1PCM: PCM CHGder 1st derivatives, ID1Alg=3 FixD1E=F DoIter=F DoCFld=F I1PDM=0.
 Calling FoFJK, ICntrl=      2127 FMM=F ISym2X=0 I1Cent= 0 IOpClX= 1 NMat=1 NMatS=1 NMatT=0.
 ***** Axes restored to original set *****
 -------------------------------------------------------------------
 Center     Atomic                   Forces (Hartrees/Bohr)
 Number     Number              X              Y              Z
 -------------------------------------------------------------------
      1        7           0.005739978    0.010540654   -0.003083767
      2        7          -0.004629625   -0.001158663    0.000880713
      3        6          -0.003567084   -0.008462786   -0.000033442
      4        6          -0.001190713    0.001521859    0.000101353
      5        6          -0.009323716   -0.001178787    0.001800979
      6        1           0.000049972    0.000027824   -0.000073996
      7        1          -0.000153229   -0.000168117    0.000007181
      8        6           0.004834054    0.000495377   -0.002109407
      9        8           0.007038166   -0.006634699    0.000962100
     10        8           0.004055087    0.006294677    0.001235698
     11        1          -0.002758705   -0.001244610    0.000604112
     12        1          -0.000094184   -0.000032729   -0.000291525
 -------------------------------------------------------------------
 Cartesian Forces:  Max     0.010540654 RMS     0.003896523

 GradGradGradGradGradGradGradGradGradGradGradGradGradGradGradGradGradGrad
 Berny optimization.
 FormGI is forming the generalized inverse of G from B-inverse, IUseBI=4.
 Internal  Forces:  Max     0.012203039 RMS     0.002947724
 Search for a saddle point.
 Step number   2 out of a maximum of   72
 All quantities printed in internal units (Hartrees-Bohrs-Radians)
 Swapping is turned off.
 Update second derivatives using D2CorX and points    1    2
 ITU=  0  0
     Eigenvalues ---   -0.05201  -0.00728   0.00311   0.00811   0.01132
     Eigenvalues ---    0.01444   0.01817   0.02051   0.03729   0.05003
     Eigenvalues ---    0.09070   0.10308   0.10563   0.11052   0.14167
     Eigenvalues ---    0.18277   0.23270   0.23489   0.26461   0.28905
     Eigenvalues ---    0.31692   0.34736   0.38242   0.38334   0.38545
     Eigenvalues ---    0.43879   0.48968   0.52052   0.58520   0.82061
 Eigenvectors required to have negative eigenvalues:
                          R13       R3        A3        A2        A20
   1                   -0.72782   0.59213   0.20116  -0.16109   0.09808
                          R12       A16       R5        A19       A18
   1                    0.08657   0.06343  -0.06262   0.06033  -0.05031
 RFO step:  Lambda0=1.219478496D-04 Lambda=-7.73131105D-03.
 Linear search not attempted -- option 19 set.
 Iteration  1 RMS(Cart)=  0.03928669 RMS(Int)=  0.04319099
 Iteration  2 RMS(Cart)=  0.01718618 RMS(Int)=  0.00345175
 Iteration  3 RMS(Cart)=  0.00066848 RMS(Int)=  0.00336223
 Iteration  4 RMS(Cart)=  0.00000259 RMS(Int)=  0.00336223
 Iteration  5 RMS(Cart)=  0.00000001 RMS(Int)=  0.00336223
 Variable       Old X    -DE/DX   Delta X   Delta X   Delta X     New X
                                 (Linear)    (Quad)   (Total)
    R1        2.60477   0.00637   0.00000   0.02859   0.03637   2.64114
    R2        2.57033   0.00886   0.00000   0.02503   0.02774   2.59807
    R3        2.35215   0.00015   0.00000   0.04657   0.04852   2.40068
    R4        2.61817   0.00796   0.00000   0.02049   0.02014   2.63831
    R5        2.55775   0.01220   0.00000   0.10941   0.10899   2.66674
    R6        2.64544   0.00343   0.00000   0.00126  -0.00284   2.64259
    R7        2.03648  -0.00002   0.00000   0.00023   0.00023   2.03671
    R8        2.62938   0.00142   0.00000  -0.00098  -0.00298   2.62640
    R9        2.04237   0.00021   0.00000   0.00136   0.00136   2.04373
   R10        2.04016   0.00004   0.00000   0.00030   0.00030   2.04046
   R11        2.36186   0.00961   0.00000   0.00395   0.00395   2.36581
   R12        2.48827   0.00644   0.00000   0.00698   0.00259   2.49086
   R13        2.41406   0.00354   0.00000  -0.06819  -0.06954   2.34452
    A1        1.85943  -0.00129   0.00000  -0.01474  -0.02292   1.83652
    A2        1.59838   0.00065   0.00000  -0.02008  -0.02800   1.57038
    A3        2.80422   0.00062   0.00000  -0.01327  -0.02724   2.77698
    A4        1.92985  -0.00045   0.00000   0.00189   0.00424   1.93408
    A5        1.94852  -0.00168   0.00000  -0.01976  -0.01753   1.93099
    A6        2.39499   0.00219   0.00000   0.00286  -0.00768   2.38731
    A7        1.84435  -0.00058   0.00000  -0.00186  -0.00121   1.84314
    A8        2.12133   0.00026   0.00000  -0.00101  -0.00134   2.11999
    A9        2.31751   0.00032   0.00000   0.00287   0.00253   2.32004
   A10        1.87790   0.00224   0.00000   0.00730   0.00657   1.88447
   A11        2.20150  -0.00117   0.00000  -0.00515  -0.00480   2.19670
   A12        2.20377  -0.00108   0.00000  -0.00217  -0.00181   2.20196
   A13        1.91318   0.00008   0.00000   0.00713   0.01267   1.92585
   A14        2.10432   0.00001   0.00000  -0.00484  -0.00770   2.09662
   A15        2.26565  -0.00008   0.00000  -0.00247  -0.00539   2.26026
   A16        2.14821   0.00305   0.00000   0.01055   0.01046   2.15867
   A17        1.91316  -0.00267   0.00000  -0.02158  -0.02151   1.89165
   A18        2.22165  -0.00037   0.00000   0.01130   0.01121   2.23286
   A19        1.65713   0.00067   0.00000   0.01247   0.01009   1.66722
   A20        2.30560   0.00306   0.00000   0.04641   0.05339   2.35899
    D1        0.00885   0.00009   0.00000   0.02472   0.02503   0.03388
    D2       -3.00913  -0.00045   0.00000   0.11814   0.11962  -2.88950
    D3        3.03133   0.00017   0.00000  -0.10864  -0.10901   2.92233
    D4        0.01335  -0.00037   0.00000  -0.01522  -0.01441  -0.00106
    D5       -0.01133  -0.00008   0.00000  -0.02397  -0.02410  -0.03543
    D6        3.13858   0.00001   0.00000  -0.00353  -0.00299   3.13559
    D7       -2.78588   0.00033   0.00000   0.39011   0.38756  -2.39832
    D8        0.36403   0.00041   0.00000   0.41055   0.40867   0.77269
    D9        0.03252   0.00010   0.00000   0.04925   0.04985   0.08236
   D10        2.82278  -0.00043   0.00000  -0.34692  -0.34346   2.47932
   D11       -0.00294  -0.00008   0.00000  -0.01574  -0.01650  -0.01944
   D12        3.13937  -0.00012   0.00000  -0.01119  -0.01141   3.12796
   D13        2.96909   0.00014   0.00000  -0.14635  -0.14729   2.82181
   D14       -0.17178   0.00010   0.00000  -0.14180  -0.14220  -0.31398
   D15        3.11218  -0.00019   0.00000  -0.02404  -0.02390   3.08827
   D16       -0.04775   0.00070   0.00000  -0.00957  -0.00799  -0.05575
   D17        0.14138  -0.00050   0.00000   0.10606   0.10528   0.24666
   D18       -3.01855   0.00039   0.00000   0.12054   0.12119  -2.89736
   D19       -0.00403   0.00002   0.00000   0.00065   0.00114  -0.00288
   D20        3.13257  -0.00001   0.00000  -0.00509  -0.00483   3.12774
   D21        3.13674   0.00006   0.00000  -0.00464  -0.00479   3.13195
   D22       -0.00985   0.00004   0.00000  -0.01038  -0.01076  -0.02062
   D23        0.00971   0.00004   0.00000   0.01480   0.01485   0.02457
   D24       -3.14120  -0.00005   0.00000  -0.00812  -0.00881   3.13318
   D25       -3.12687   0.00007   0.00000   0.02055   0.02086  -3.10601
   D26        0.00540  -0.00003   0.00000  -0.00237  -0.00280   0.00260
   D27        0.05345  -0.00059   0.00000   0.02907   0.02692   0.08037
   D28       -3.10746   0.00039   0.00000   0.04429   0.04367  -3.06378
   D29       -0.06021   0.00017   0.00000  -0.05751  -0.05780  -0.11801
         Item               Value     Threshold  Converged?
 Maximum Force            0.012203     0.000450     NO 
 RMS     Force            0.002948     0.000300     NO 
 Maximum Displacement     0.151603     0.001800     NO 
 RMS     Displacement     0.042406     0.001200     NO 
 Predicted change in Energy=-3.890779D-03
 GradGradGradGradGradGradGradGradGradGradGradGradGradGradGradGradGradGrad

                          Input orientation:                          
 ---------------------------------------------------------------------
 Center     Atomic      Atomic             Coordinates (Angstroms)
 Number     Number       Type             X           Y           Z
 ---------------------------------------------------------------------
      1          7           0       -0.587181    1.044772   -0.152736
      2          7           0        0.029650   -0.209361   -0.159084
      3          6           0       -0.918500   -1.229089   -0.057328
      4          6           0       -2.155498   -0.584206    0.040043
      5          6           0       -1.928934    0.786429   -0.000633
      6          1           0       -0.630173   -2.267585   -0.058754
      7          1           0       -3.118458   -1.069726    0.121343
      8          6           0        1.423235   -0.079137    0.020873
      9          8           0        2.205821   -1.052308    0.109393
     10          8           0        1.717759    1.204671    0.070903
     11          1           0        0.542301    1.598805    0.023881
     12          1           0       -2.636374    1.601092    0.041177
 ---------------------------------------------------------------------
                    Distance matrix (angstroms):
                    1          2          3          4          5
     1  N    0.000000
     2  N    1.397630   0.000000
     3  C    2.299852   1.396133   0.000000
     4  C    2.269439   2.225990   1.398399   0.000000
     5  C    1.374837   2.202897   2.255328   1.389829   0.000000
     6  H    3.313969   2.163727   1.077779   2.273794   3.319210
     7  H    3.309620   3.275584   2.212947   1.081495   2.207976
     8  C    2.309780   1.411177   2.610024   3.614248   3.462181
     9  O    3.502473   2.349119   3.133756   4.386916   4.526506
    10  O    2.321277   2.214067   3.590193   4.266515   3.671295
    11  H    1.270383   1.888320   3.183947   3.470435   2.601453
    12  H    2.132202   3.228858   3.312208   2.237581   1.079766
                    6          7          8          9         10
     6  H    0.000000
     7  H    2.767464   0.000000
     8  C    3.002020   4.649552   0.000000
     9  O    3.089989   5.324320   1.251934   0.000000
    10  O    4.193584   5.344569   1.318108   2.309467   0.000000
    11  H    4.041100   4.531193   1.895137   3.130977   1.240667
    12  H    4.359069   2.715162   4.393632   5.521959   4.372242
                   11         12
    11  H    0.000000
    12  H    3.178722   0.000000
 Stoichiometry    C4H4N2O2(1-,2)
 Framework group  C1[X(C4H4N2O2)]
 Deg. of freedom    30
 Full point group                 C1      NOp   1
 Largest Abelian subgroup         C1      NOp   1
 Largest concise Abelian subgroup C1      NOp   1
                         Standard orientation:                         
 ---------------------------------------------------------------------
 Center     Atomic      Atomic             Coordinates (Angstroms)
 Number     Number       Type             X           Y           Z
 ---------------------------------------------------------------------
      1          7           0       -0.597251   -1.038841    0.116355
      2          7           0        0.024673    0.212276    0.152226
      3          6           0       -0.916834    1.237580    0.044970
      4          6           0       -2.154328    0.599694   -0.086296
      5          6           0       -1.934499   -0.772379   -0.059548
      6          1           0       -0.624163    2.274641    0.066311
      7          1           0       -3.113342    1.090636   -0.180627
      8          6           0        1.421076    0.078146   -0.001044
      9          8           0        2.209457    1.048850   -0.060433
     10          8           0        1.711073   -1.206200   -0.062415
     11          1           0        0.533227   -1.595582   -0.044686
     12          1           0       -2.644411   -1.583183   -0.126774
 ---------------------------------------------------------------------
 Rotational constants (GHZ):           5.1113823           1.7864779           1.3296685
 Standard basis: 6-31+G(d,p) (6D, 7F)
 There are   172 symmetry adapted cartesian basis functions of A   symmetry.
 There are   172 symmetry adapted basis functions of A   symmetry.
   172 basis functions,   284 primitive gaussians,   172 cartesian basis functions
    30 alpha electrons       29 beta electrons
       nuclear repulsion energy       358.2203629159 Hartrees.
 NAtoms=   12 NActive=   12 NUniq=   12 SFac= 1.00D+00 NAtFMM=   60 NAOKFM=F Big=F
 Integral buffers will be    131072 words long.
 Raffenetti 2 integral format.
 Two-electron integral symmetry is turned on.
 ------------------------------------------------------------------------------
 Polarizable Continuum Model (PCM)
 =================================
 Model                : PCM.
 Atomic radii         : SMD-Coulomb.
 Polarization charges : Total charges.
 Charge compensation  : None.
 Solution method      : Matrix inversion.
 Cavity type          : VdW (van der Waals Surface) (Alpha=1.000).
 Cavity algorithm     : GePol (No added spheres)
                        Default sphere list used, NSphG=   12.
                        Lebedev-Laikov grids with approx.  5.0 points / Ang**2.
                        Smoothing algorithm: York/Karplus (Gamma=1.0000).
                        Polarization charges: spherical gaussians, with
                                              point-specific exponents (IZeta= 3).
                        Self-potential: point-specific (ISelfS= 7).
                        Self-field    : sphere-specific E.n sum rule (ISelfD= 2).
 1st derivatives      : Analytical E(r).r(x)/FMM algorithm (CHGder, D1EAlg=3).
                        Cavity 1st derivative terms included.
 Solvent              : Water, Eps=  78.355300 Eps(inf)=   1.777849
 ------------------------------------------------------------------------------
 Spheres list:
 ISph  on   Nord     Re0    Alpha      Xe            Ye            Ze
    1   N      1    1.8900  1.000     -0.597251     -1.038841      0.116355
    2   N      2    1.8900  1.000      0.024673      0.212276      0.152226
    3   C      3    1.8500  1.000     -0.916834      1.237580      0.044970
    4   C      4    1.8500  1.000     -2.154328      0.599694     -0.086296
    5   C      5    1.8500  1.000     -1.934499     -0.772379     -0.059548
    6   H      6    1.2000  1.000     -0.624163      2.274641      0.066311
    7   H      7    1.2000  1.000     -3.113342      1.090636     -0.180627
    8   C      8    1.8500  1.000      1.421076      0.078146     -0.001044
    9   O      9    1.5200  1.000      2.209457      1.048850     -0.060433
   10   O     10    1.5200  1.000      1.711073     -1.206200     -0.062415
   11   H     11    1.2000  1.000      0.533227     -1.595582     -0.044686
   12   H     12    1.2000  1.000     -2.644411     -1.583183     -0.126774
 ------------------------------------------------------------------------------
 ------------------------------------------------------------------------------
 Atomic radii for non-electrostatic terms: SMD-CDS.
 ------------------------------------------------------------------------------
 Nuclear repulsion after PCM non-electrostatic terms =      358.2281490158 Hartrees.
 One-electron integrals computed using PRISM.
 NBasis=   172 RedAO= T EigKep=  4.85D-05  NBF=   172
 NBsUse=   172 1.00D-06 EigRej= -1.00D+00 NBFU=   172
 Initial guess from the checkpoint file:  "/scratch/gongke2021/bizuo-TS/Gau-25488.chk"
 B after Tr=    -0.000000    0.000000    0.000000
         Rot=    1.000000    0.000102    0.000226    0.000490 Ang=   0.06 deg.
 Initial guess <Sx>= 0.0000 <Sy>= 0.0000 <Sz>= 0.5000 <S**2>= 0.7618 S= 0.5059
 ExpMin= 4.38D-02 ExpMax= 5.48D+03 ExpMxC= 8.25D+02 IAcc=2 IRadAn=         4 AccDes= 0.00D+00
 Harris functional with IExCor= 1009 and IRadAn=       4 diagonalized for initial guess.
 HarFok:  IExCor= 1009 AccDes= 0.00D+00 IRadAn=         4 IDoV= 1 UseB2=F ITyADJ=14
 ICtDFT=  3500011 ScaDFX=  1.000000  1.000000  1.000000  1.000000
 FoFCou: FMM=F IPFlag=           0 FMFlag=      100000 FMFlg1=           0
         NFxFlg=           0 DoJE=T BraDBF=F KetDBF=T FulRan=T
         wScrn=  0.000000 ICntrl=       500 IOpCl=  0 I1Cent=   200000004 NGrid=           0
         NMat0=    1 NMatS0=      1 NMatT0=    0 NMatD0=    1 NMtDS0=    0 NMtDT0=    0
 Petite list used in FoFCou.
 Keep R1 and R2 ints in memory in canonical form, NReq=241382590.
 Requested convergence on RMS density matrix=1.00D-08 within 128 cycles.
 Requested convergence on MAX density matrix=1.00D-06.
 Requested convergence on             energy=1.00D-06.
 No special actions if energy rises.
 Inv3:  Mode=1 IEnd=     3201267.
 Iteration    1 A*A^-1 deviation from unit magnitude is 3.33D-15 for    707.
 Iteration    1 A*A^-1 deviation from orthogonality  is 2.11D-15 for   1030    975.
 Iteration    1 A^-1*A deviation from unit magnitude is 3.66D-15 for   1025.
 Iteration    1 A^-1*A deviation from orthogonality  is 2.79D-14 for    741    708.
 Error on total polarization charges =  0.06016
 SCF Done:  E(UM062X) =  -414.702395165     A.U. after   15 cycles
            NFock= 15  Conv=0.93D-08     -V/T= 2.0086
 <Sx>= 0.0000 <Sy>= 0.0000 <Sz>= 0.5000 <S**2>= 0.7620 S= 0.5060
 <L.S>= 0.000000000000E+00
[...]
 RMS     Displacement     0.000398     0.001200     YES
 Predicted change in Energy=-3.098841D-08
 Optimization completed.
    -- Stationary point found.
                           ----------------------------
                           !   Optimized Parameters   !
                           ! (Angstroms and Degrees)  !
 --------------------------                            --------------------------
 ! Name  Definition              Value          Derivative Info.                !
 --------------------------------------------------------------------------------
 ! R1    R(1,2)                  1.4059         -DE/DX =    0.0                 !
 ! R2    R(1,5)                  1.3777         -DE/DX =    0.0                 !
 ! R3    R(1,11)                 1.3022         -DE/DX =    0.0                 !
 ! R4    R(2,3)                  1.4039         -DE/DX =    0.0                 !
 ! R5    R(2,8)                  1.3748         -DE/DX =    0.0                 !
 ! R6    R(3,4)                  1.397          -DE/DX =    0.0                 !
 ! R7    R(3,6)                  1.0779         -DE/DX =    0.0                 !
 ! R8    R(4,5)                  1.3917         -DE/DX =    0.0                 !
 ! R9    R(4,7)                  1.0817         -DE/DX =    0.0                 !
 ! R10   R(5,12)                 1.0804         -DE/DX =    0.0                 !
 ! R11   R(8,9)                  1.2471         -DE/DX =    0.0                 !
 ! R12   R(8,10)                 1.32           -DE/DX =    0.0                 !
 ! R13   R(10,11)                1.2178         -DE/DX =    0.0                 !
 ! A1    A(2,1,5)              104.8983         -DE/DX =    0.0                 !
 ! A2    A(2,1,11)              88.8284         -DE/DX =    0.0                 !
 ! A3    A(5,1,11)             146.7683         -DE/DX =    0.0                 !
 ! A4    A(1,2,3)              110.5602         -DE/DX =    0.0                 !
 ! A5    A(1,2,8)              110.9835         -DE/DX =    0.0                 !
 ! A6    A(3,2,8)              131.7125         -DE/DX =    0.0                 !
 ! A7    A(2,3,4)              105.6993         -DE/DX =    0.0                 !
 ! A8    A(2,3,6)              121.3011         -DE/DX =    0.0                 !
 ! A9    A(4,3,6)              132.9621         -DE/DX =    0.0                 !
 ! A10   A(3,4,5)              107.9921         -DE/DX =    0.0                 !
 ! A11   A(3,4,7)              125.8454         -DE/DX =    0.0                 !
 ! A12   A(5,4,7)              126.1515         -DE/DX =    0.0                 !
 ! A13   A(1,5,4)              110.6197         -DE/DX =    0.0                 !
 ! A14   A(1,5,12)             119.9713         -DE/DX =    0.0                 !
 ! A15   A(4,5,12)             129.188          -DE/DX =    0.0                 !
 ! A16   A(2,8,9)              123.5755         -DE/DX =    0.0                 !
 ! A17   A(2,8,10)             109.6446         -DE/DX =    0.0                 !
 ! A18   A(9,8,10)             126.779          -DE/DX =    0.0                 !
 ! A19   A(8,10,11)             94.9625         -DE/DX =    0.0                 !
 ! A20   A(1,11,10)            134.6732         -DE/DX =    0.0                 !
 ! D1    D(5,1,2,3)              4.8663         -DE/DX =    0.0                 !
 ! D2    D(5,1,2,8)           -149.956          -DE/DX =    0.0                 !
 ! D3    D(11,1,2,3)           154.2164         -DE/DX =    0.0                 !
 ! D4    D(11,1,2,8)            -0.6059         -DE/DX =    0.0                 !
 ! D5    D(2,1,5,4)             -4.4908         -DE/DX =    0.0                 !
 ! D6    D(2,1,5,12)          -179.5724         -DE/DX =    0.0                 !
 ! D7    D(11,1,5,4)          -116.0501         -DE/DX =    0.0                 !
 ! D8    D(11,1,5,12)           68.8683         -DE/DX =    0.0                 !
 ! D9    D(2,1,11,10)            8.4505         -DE/DX =    0.0                 !
 ! D10   D(5,1,11,10)          124.4287         -DE/DX =    0.0                 !
 ! D11   D(1,2,3,4)             -3.4027         -DE/DX =    0.0                 !
 ! D12   D(1,2,3,6)            178.5518         -DE/DX =    0.0                 !
 ! D13   D(8,2,3,4)            144.4493         -DE/DX =    0.0                 !
 ! D14   D(8,2,3,6)            -33.5962         -DE/DX =    0.0                 !
 ! D15   D(1,2,8,9)            175.5029         -DE/DX =    0.0                 !
 ! D16   D(1,2,8,10)            -4.8275         -DE/DX =    0.0                 !
 ! D17   D(3,2,8,9)             27.7521         -DE/DX =    0.0                 !
 ! D18   D(3,2,8,10)          -152.5783         -DE/DX =    0.0                 !
 ! D19   D(2,3,4,5)              0.5507         -DE/DX =    0.0                 !
 ! D20   D(2,3,4,7)            179.3985         -DE/DX =    0.0                 !
 ! D21   D(6,3,4,5)            178.2685         -DE/DX =    0.0                 !
 ! D22   D(6,3,4,7)             -2.8836         -DE/DX =    0.0                 !
 ! D23   D(3,4,5,1)              2.5403         -DE/DX =    0.0                 !
 ! D24   D(3,4,5,12)           177.0415         -DE/DX =    0.0                 !
 ! D25   D(7,4,5,1)           -176.3031         -DE/DX =    0.0                 !
 ! D26   D(7,4,5,12)            -1.8019         -DE/DX =    0.0                 !
 ! D27   D(2,8,10,11)            7.6417         -DE/DX =    0.0                 !
 ! D28   D(9,8,10,11)         -172.702          -DE/DX =    0.0                 !
 ! D29   D(8,10,11,1)          -11.4748         -DE/DX =    0.0                 !
 --------------------------------------------------------------------------------
 GradGradGradGradGradGradGradGradGradGradGradGradGradGradGradGradGradGrad


 ----------------------------------------------------------------------

 Electric dipole moment (input orientation):
 (Debye = 10**-18 statcoulomb cm , SI units = C m)
                  (au)            (Debye)         (10**-30 SI)
   Tot        0.294465D+01      0.748456D+01      0.249658D+02
   x         -0.294027D+01     -0.747341D+01     -0.249286D+02
   y          0.160508D+00      0.407971D+00      0.136084D+01
   z          0.615808D-02      0.156523D-01      0.522104D-01

 Dipole polarizability, Alpha (input orientation).
 (esu units = cm**3 , SI units = C**2 m**2 J**-1)
 Alpha(0;0):
               (au)            (10**-24 esu)      (10**-40 SI)
   iso        0.118650D+03      0.175821D+02      0.195627D+02
   aniso      0.778710D+02      0.115393D+02      0.128392D+02
   xx         0.158357D+03      0.234661D+02      0.261096D+02
   yx        -0.810668D+01     -0.120129D+01     -0.133661D+01
   yy         0.126411D+03      0.187321D+02      0.208423D+02
   zx         0.294980D+01      0.437115D+00      0.486356D+00
   zy        -0.134025D+01     -0.198605D+00     -0.220977D+00
   zz         0.711813D+02      0.105480D+02      0.117362D+02

 ----------------------------------------------------------------------

 Dipole orientation:
     7         -0.49936596          1.96300974          1.22138982
     7         -0.62849573         -0.33777774         -0.10085295
     6         -0.36296475         -2.38563477          1.56458325
     6          0.08495552         -1.32200552          3.93892905
     6          0.05836341          1.29456466          3.67505138
     1         -0.45626635         -4.30884654          0.90028228
     1          0.36418922         -2.35560701          5.68022100
     6          0.07422187         -0.02537781         -2.58243404
     8          0.26804726         -1.80428146         -4.11593527
     8          0.47792877          2.39299065         -3.04161565
     1          0.28143137          3.04830226         -0.84444059
     1          0.25210702          2.73748087          5.10629179

 Electric dipole moment (dipole orientation):
 (Debye = 10**-18 statcoulomb cm , SI units = C m)
                  (au)            (Debye)         (10**-30 SI)
   Tot        0.294465D+01      0.748456D+01      0.249658D+02
   x          0.000000D+00      0.000000D+00      0.000000D+00
   y          0.000000D+00      0.000000D+00      0.000000D+00
   z          0.294465D+01      0.748456D+01      0.249658D+02

 Dipole polarizability, Alpha (dipole orientation).
 (esu units = cm**3 , SI units = C**2 m**2 J**-1)
 Alpha(0;0):
               (au)            (10**-24 esu)      (10**-40 SI)
   iso        0.118650D+03      0.175821D+02      0.195627D+02
   aniso      0.778710D+02      0.115393D+02      0.128392D+02
   xx         0.712264D+02      0.105547D+02      0.117437D+02
   yx         0.177881D+01      0.263593D+00      0.293286D+00
   yy         0.125591D+03      0.186107D+02      0.207072D+02
   zx        -0.285329D+01     -0.422814D+00     -0.470444D+00
   zy         0.648243D+01      0.960597D+00      0.106881D+01
   zz         0.159132D+03      0.235809D+02      0.262373D+02

 ----------------------------------------------------------------------
 1\1\GINC-NODE3\Freq\UM062X\6-31+G(d,p)\C4H4N2O2(1-,2)\GONGKE2021\05-No
 v-2023\0\\#N Geom=AllCheck Guess=TCheck SCRF=Check GenChk UM062X/6-31+
 G(d,p) Freq\\Title Card Required\\-1,2\N,-0.5902855711,1.0565780163,-0
 .3191301847\N,0.0418997397,-0.1991873048,-0.3224589893\C,-0.8962470577
 ,-1.2239829278,-0.1212426016\C,-2.1190572395,-0.5814424602,0.087381328
 8\C,-1.9044940119,0.790705737,-0.0024355568\H,-0.6007632055,-2.2605283
 816,-0.1158030814\H,-3.0680974877,-1.0685266571,0.2666662577\C,1.36399
 97928,-0.0857455256,0.0370921878\O,2.1236756722,-1.0629720811,0.189122
 1325\O,1.677214247,1.1885638062,0.1801416197\H,0.5345592852,1.59204056
 48,0.0598438151\H,-2.6187561636,1.5988522139,0.0599000721\\Version=ES6
 4L-G16RevA.03\State=2-A\HF=-414.7043947\S2=0.762497\S2-1=0.\S2A=0.7500
 73\RMSD=1.739e-09\RMSF=1.876e-05\ZeroPoint=0.0781902\Thermal=0.0844081
 \Dipole=-2.9402678,0.1605082,0.0061581\DipoleDeriv=-0.9430585,-0.94911
 44,0.0100061,-0.0020894,-0.9186854,0.2282352,-0.1546588,0.4644977,-0.4
 687592,-1.5581542,0.0463547,0.0489833,-0.2187904,-0.1913655,-0.1233708
 ,-0.6396972,-0.0270288,-0.208491,-0.0128272,0.6446705,-0.1782791,-0.12
 36084,-0.5219763,-0.0698104,0.0261599,-0.165152,-0.4431938,0.0075874,-
 0.5395702,-0.084869,-0.2329811,0.5599348,0.0880283,0.0133585,0.1401199
 ,-0.2474909,-0.050322,0.7029573,-0.2173788,0.258474,-0.1015073,-0.1803
 538,-0.0257687,-0.4085613,-0.2145618,0.0773539,0.0383183,0.0445331,0.0
 022198,0.0486092,0.0068426,0.0418702,0.0201293,0.3460736,-0.0113505,-0
 .0847034,0.0418196,-0.0927077,0.1387751,0.0150615,0.053715,-0.0023643,
 0.2425715,3.9237731,-0.5116001,0.4541384,-0.7185057,2.7751198,-0.00128
 38,1.0236416,-0.0402483,0.710078,-2.3260072,0.5934805,-0.1543007,1.725
 1295,-1.6427743,0.1842729,-0.3891007,0.1186195,-0.7525191,-1.7942431,-
 0.4093046,-0.1261714,-0.7000862,-1.649422,-0.1179708,-0.1441299,-0.064
 7061,-0.6411894,1.647498,0.3961613,0.129971,0.0282075,0.4548885,-0.035
 7379,0.1789262,-0.1084936,0.4013681,0.0397503,0.0723501,0.0315474,0.07
 47383,0.0484034,0.006087,0.0156839,0.0731879,0.276114\Polar=158.357181
 2,-8.1066821,126.4106143,2.9497992,-1.3402496,71.1813149\Quadrupole=-6
 .8651972,3.1998019,3.6653953,1.9624284,-2.7305874,0.7733325\PG=C01 [X(
 C4H4N2O2)]\NImag=1\\0.58040154,0.02619479,0.40607780,-0.04134807,-0.00
 574793,0.09458098,-0.11471490,0.01357950,0.00067697,0.78375035,0.06203
 178,-0.19698547,-0.01949585,0.08000516,0.61464315,-0.00818348,0.028048
 60,-0.04281047,0.04584040,-0.01828696,0.09503640,0.00694828,-0.0004476
 8,0.00110806,-0.16937084,-0.09375692,0.00385393,0.55849780,-0.01769725
 ,-0.05352037,0.00933454,-0.06076107,-0.19774359,0.01529269,-0.12133430
 ,0.77844630,-0.00360054,-0.00189250,-0.00478529,0.02052761,0.03476584,
 -0.02451930,-0.06760006,-0.00870503,0.06529899,-0.05463516,-0.03394907
 ,0.01378138,-0.06670805,-0.02608293,0.01692668,-0.27668302,0.09126604,
 0.03533169,0.76072459,-0.03931421,-0.02149339,0.00564946,-0.00387606,0
 .00422497,-0.00498576,0.07034924,-0.13449703,-0.00397985,0.13547090,0.
 62544758,0.02124544,0.00813164,0.01077218,0.01332205,0.00733537,0.0055
 5153,0.03924750,-0.01173327,-0.05087932,-0.11942176,-0.04524325,0.1320
 1410,-0.28166627,-0.01671664,0.05297854,-0.07289423,0.02410601,0.00940
 855,-0.00527964,0.04006842,0.00875444,-0.09024301,-0.05367075,0.001939
 31,0.64304852,-0.08399973,-0.10906197,0.01209914,0.03394355,-0.0168283
 7,-0.00230557,0.07856809,-0.06452917,-0.01394725,-0.07002152,-0.333965
 58,0.02302161,-0.11493038,0.76152495,0.05283901,-0.00169246,-0.0489584
 0,0.01502783,-0.00138579,-0.00125685,0.00664036,-0.00952535,0.02018446
 ,0.00238689,0.02843016,-0.05852764,-0.09493421,-0.01894286,0.11199579,
 -0.00278574,-0.00236049,0.00023013,0.00943605,-0.02436268,-0.00130093,
 -0.08065897,0.09387158,0.01017499,0.00557387,0.01958480,-0.00280169,-0
 .00564084,0.00208722,0.00136829,0.07246054,-0.00154458,-0.00011304,-0.
 00063505,0.00642064,-0.01417502,-0.00056074,0.08425145,-0.34927502,0.0
 0455942,-0.00105394,-0.00040772,-0.00009219,-0.00119755,0.00081392,0.0
 0069259,-0.08881120,0.36404750,0.00064230,0.00202951,0.00302819,-0.001
 61077,0.00442579,-0.00617434,0.00775757,0.00240288,-0.00534738,-0.0000
 8474,-0.00541448,-0.00135297,0.00195488,0.00073241,0.00197278,-0.00770
 660,-0.00433644,0.00883663,0.00054668,0.00151224,0.00113882,-0.0044848
 7,0.00079678,0.00069456,-0.00918165,-0.01398585,0.00200573,-0.29237183
 ,-0.12039260,0.04991452,0.00334405,0.00231801,-0.00086131,0.00032368,0
 .00031172,-0.00049745,0.30148469,-0.00158154,-0.00569764,-0.00024832,0
 .00491399,-0.00190691,-0.00033154,0.01073183,0.01258238,-0.00226131,-0
 .11939078,-0.12032206,0.02274427,-0.02548351,-0.00029158,0.00482806,-0
 .00096048,-0.00026744,0.00012084,0.13063864,0.11388940,0.00044652,0.00
 104804,0.00696611,0.00111226,-0.00110645,0.00518704,0.00174577,0.00194
 224,-0.00099565,0.04884944,0.02321140,-0.03876834,0.00097888,-0.000131
 53,-0.00053655,-0.00036683,-0.00017335,-0.00217417,-0.05263170,-0.0250
 4546,0.03258677,-0.05893187,0.00745959,-0.00977629,-0.26039883,0.00219
 625,-0.01236498,-0.02427293,-0.01487271,-0.01028040,0.00623811,-0.0023
 6239,-0.00311146,0.01875010,-0.00085010,-0.00770206,0.00193881,0.00213
 959,0.00029984,0.00192299,-0.00032541,-0.00037038,0.65647127,0.0044844
 0,-0.00228600,0.00000628,-0.03498534,-0.11615333,-0.00004828,-0.023594
 66,0.00236609,-0.00864804,-0.00323115,-0.00693301,0.00119358,0.0033391
 7,-0.00927415,-0.00206917,0.00032217,-0.00094366,0.00046507,-0.0004728
 4,0.00035933,0.00081221,-0.16722078,0.77029720,-0.01139169,-0.00022901
 ,0.00465223,-0.05059051,0.00951838,-0.05646461,0.01086682,-0.00667441,
 -0.00145578,0.00181327,0.00536872,-0.00201891,0.00593198,-0.00514073,-
 0.00582956,0.00030832,0.00063205,-0.00018996,0.00141323,-0.00063903,0.
 00058335,0.08605208,-0.01749280,0.19100315,-0.00266828,0.00820550,-0.0
 0362013,-0.05079224,0.04507248,-0.02977208,0.00483537,-0.00455187,0.00
 529209,-0.00242630,0.00255949,0.00154354,-0.00762490,0.00216116,0.0024
 6230,-0.00125268,-0.00030789,-0.00047886,-0.00074065,-0.00006503,0.000
 16865,-0.24590127,0.20616425,-0.03809753,0.29108633,0.00514287,-0.0144
 8342,0.00542226,0.02173705,0.00526960,0.02518650,0.00454421,0.01091005
 ,-0.00558571,0.00149442,-0.00091920,-0.00258663,0.00883587,0.00163217,
 -0.00340493,0.00063547,0.00096388,0.00061279,0.00060411,0.00019593,-0.
 00031661,0.19871594,-0.34968627,0.02819865,-0.26662805,0.42614737,-0.0
 0035775,-0.00204127,0.00265326,-0.02067807,0.01222791,0.00625517,-0.00
 120357,-0.00051069,-0.00235505,-0.00073442,0.00013552,0.00020831,-0.00
 293879,0.00204981,0.00228788,-0.00006277,-0.00017253,0.00016660,-0.000
 26573,0.00003771,0.00001601,-0.03491780,0.03919166,-0.06822313,0.05919
 202,-0.04788273,0.04135850,-0.11520276,-0.02343337,-0.01458890,-0.0414
 8644,-0.04120800,-0.01145768,0.00070705,0.00279248,-0.00359066,-0.0101
 1692,-0.00517732,0.00260441,0.01185597,-0.00902290,-0.01494125,-0.0003
 4074,-0.00072426,0.00030169,-0.00034550,-0.00100881,0.00168047,-0.1348
 1648,-0.05868032,-0.02112221,0.02458826,0.03717709,0.00447468,0.249794
 16,0.06137095,0.02414599,0.00476303,-0.04370377,-0.04787178,-0.0340312
 7,-0.00738543,0.00093945,0.00491426,0.00343385,-0.00214626,0.00034515,
 -0.01817847,0.00503178,0.00911486,-0.00070662,-0.00031892,-0.00041596,
 -0.00083256,0.00075130,0.00021998,-0.05421486,-0.25418661,-0.01634023,
 0.01047880,-0.07920313,-0.00121706,0.10314856,0.39323431,-0.01677822,-
 0.00061780,0.00399035,-0.02309450,-0.02124011,0.01437387,-0.00053397,0
 .00664256,0.00234690,-0.00199597,-0.00250509,0.00114862,0.00090609,-0.
 00258247,-0.00008745,-0.00005104,-0.00024029,-0.00002927,-0.00041795,-
 0.00005074,-0.00013123,-0.01329722,-0.02013904,-0.06965577,0.00472002,
 0.00184741,0.01605565,0.04857608,0.04017772,0.06251693,0.05653286,-0.0
 0295783,-0.00037184,-0.00678151,-0.02697471,-0.01458320,-0.00468492,0.
 00835675,0.00208610,0.01067638,0.00323768,-0.00334202,-0.02745887,0.01
 049519,0.01820782,0.00012687,0.00048135,-0.00061387,-0.00020221,0.0016
 7642,-0.00109460,0.03747548,0.07253062,0.01377102,-0.00781541,-0.01287
 876,-0.00208420,0.01599383,-0.05309843,0.00210865,-0.07416763,-0.00994
 893,-0.03691602,-0.01130765,-0.01364698,-0.03317369,-0.00883942,0.0009
 5975,-0.00198412,-0.00022792,0.00202447,0.00012880,-0.00082260,-0.0011
 3134,-0.00018404,0.00484521,-0.00048803,-0.00034966,-0.00029767,0.0000
 0938,0.00009026,-0.00028749,0.02911202,-0.03429886,0.00256635,-0.00280
 185,-0.00098357,-0.00164598,-0.00441294,-0.03997066,-0.00139573,0.0000
 1160,0.14781500,0.00270273,-0.02189941,-0.02565976,-0.00150535,-0.0071
 3206,0.00092536,-0.00096027,-0.00097185,-0.00094200,0.00337819,0.00109
 457,0.00023440,-0.00103650,0.01179942,0.00097880,0.00007366,0.00029014
 ,0.00004602,-0.00004615,0.00113577,0.00018340,0.00552806,0.00740307,0.
 00757316,-0.00176236,-0.00140561,0.00109908,0.00791901,-0.00756859,-0.
 03048415,-0.01431411,0.01758251,0.04638851,-0.01382437,0.02291345,-0.0
 0020868,-0.00555449,-0.00182320,0.00093823,-0.00085653,-0.00315222,0.0
 0089901,0.00997136,-0.00640878,-0.00113985,-0.18619088,0.14925139,0.01
 950634,0.00081917,0.00003466,0.00003601,-0.00029538,0.00085468,-0.0005
 1848,0.00152462,0.00134449,0.00104521,-0.00128822,0.00061977,-0.000423
 60,-0.00063044,-0.00031202,-0.00014197,0.00030512,0.00031285,0.0000231
 0,0.19602004,-0.00513854,0.01033351,0.00016009,-0.00362668,0.00070046,
 0.00086175,-0.00288558,-0.00369497,0.00100809,0.02003973,-0.00911709,-
 0.00229369,0.15495916,-0.23486796,-0.01089033,0.00118826,0.00002517,-0
 .00032473,-0.00050703,0.00061702,-0.00017298,0.00022285,0.00073925,0.0
 0023207,-0.00028699,0.00015658,-0.00017236,0.00054978,-0.00040548,0.00
 010358,-0.00087988,-0.00017346,-0.00032795,-0.16363507,0.23568697,0.00
 378376,-0.00513741,-0.00442938,0.00097208,0.00037393,0.00389619,-0.000
 92215,0.00250569,0.00344942,-0.00023065,-0.00176140,0.00161803,0.01605
 682,-0.00665198,-0.02222325,0.00013448,0.00003638,0.00121786,-0.000446
 57,-0.00029025,-0.00291674,-0.00005939,-0.00067454,0.00002582,0.000352
 35,-0.00008539,0.00047770,0.00014435,0.00003811,-0.00004444,0.00023026
 ,-0.00016960,-0.00034282,-0.02001534,0.01181647,0.01927161\\0.00000852
 ,-0.00002617,-0.00003031,0.00004031,0.00003730,0.00001529,-0.00002343,
 -0.00001254,-0.00000824,-0.00000553,0.00000962,0.00000118,0.00001782,0
 .00001463,0.00002470,-0.00001795,-0.00000066,0.00000311,-0.00000817,0.
 00001979,-0.00000191,-0.00002051,-0.00003650,-0.00001198,-0.00002714,0
 .,0.00000011,-0.00000278,-0.00002638,0.00000095,0.00002581,0.00000460,
 0.00001810,0.00001304,0.00001631,-0.00001100\\\@


 THE PROBLEM WITH THE LADDER OF SUCCESS IS YOU CAN'T
 CLIMB IT WHILE YOU'RE TWIDDLING YOUR THUMBS.
 Job cpu time:       0 days  0 hours 44 minutes  6.4 seconds.
 Elapsed time:       0 days  0 hours  2 minutes 13.4 seconds.
 File lengths (MBytes):  RWF=    101 Int=      0 D2E=      0 Chk=     10 Scr=      1
 Normal termination of Gaussian 16 at Sun Nov  5 05:21:41 2023.
