 Entering Gaussian System, Link 0=/opt/soft/g16b/g16/g16
 Initial command:
 /opt/soft/g16b/g16/l1.exe "/scratch/gongke2021/bizuo-TS/Gau-5963.inp" -scrdir="/scratch/gongke2021/bizuo-TS/"
 Entering Link 1 = /opt/soft/g16b/g16/l1.exe PID=      5964.
  
 Copyright (c) 1988,1990,1992,1993,1995,1998,2003,2009,2016,
            Gaussian, Inc.  All Rights Reserved.
  
 This is part of the Gaussian(R) 16 program.  It is based on
 the Gaussian(R) 09 system (copyright 2009, Gaussian, Inc.),
 the Gaussian(R) 03 system (copyright 2003, Gaussian, Inc.),
 the Gaussian(R) 98 system (copyright 1998, Gaussian, Inc.),
 the Gaussian(R) 94 system (copyright 1995, Gaussian, Inc.),
 the Gaussian 92(TM) system (copyright 1992, Gaussian, Inc.),
 the Gaussian 90(TM) system (copyright 1990, Gaussian, Inc.),
 the Gaussian 88(TM) system (copyright 1988, Gaussian, Inc.),
 the Gaussian 86(TM) system (copyright 1986, Carnegie Mellon
 University), and the Gaussian 82(TM) system (copyright 1983,
 Carnegie Mellon University). Gaussian is a federally registered
 trademark of Gaussian, Inc.
  
 This software contains proprietary and confidential information,
 including trade secrets, belonging to Gaussian, Inc.
  
 This software is provided under written license and may be
 used, copied, transmitted, or stored only in accord with that
 written license.
  
 The following legend is applicable only to US Government
 contracts under FAR:
  
                    RESTRICTED RIGHTS LEGEND
  
 Use, reproduction and disclosure by the US Government is
 subject to restrictions as set forth in subparagraphs (a)
 and (c) of the Commercial Computer Software - Restricted
 Rights clause in FAR 52.227-19.
  
 Gaussian, Inc.
 340 Quinnipiac St., Bldg. 40, Wallingford CT 06492
  
  
 ---------------------------------------------------------------
 Warning -- This program may not be used in any manner that
 competes with the business of Gaussian, Inc. or will provide
 assistance to any competitor of Gaussian, Inc.  The licensee
 of this program is prohibited from giving any competitor of
 Gaussian, Inc. access to this program.  By using this program,
 the user acknowledges that Gaussian, Inc. is engaged in the
 business of creating and licensing software in the field of
 computational chemistry and represents and warrants to the
 licensee that it is not a competitor of Gaussian, Inc. and that
 it will not use this program in any manner prohibited above.
 ---------------------------------------------------------------
  

 Cite this work as:
 Gaussian 16, Revision A.03,
 M. J. Frisch, G. W. Trucks, H. B. Schlegel, G. E. Scuseria, 
 M. A. Robb, J. R. Cheeseman, G. Scalmani, V. Barone, 
 G. A. Petersson, H. Nakatsuji, X. Li, M. Caricato, A. V. Marenich, 
 J. Bloino, B. G. Janesko, R. Gomperts, B. Mennucci, H. P. Hratchian, 
 J. V. Ortiz, A. F. Izmaylov, J. L. Sonnenberg, D. Williams-Young, 
 F. Ding, F. Lipparini, F. Egidi, J. Goings, B. Peng, A. Petrone, 
 T. Henderson, D. Ranasinghe, V. G. Zakrzewski, J. Gao, N. Rega, 
 G. Zheng, W. Liang, M. Hada, M. Ehara, K. Toyota, R. Fukuda, 
 J. Hasegawa, M. Ishida, T. Nakajima, Y. Honda, O. Kitao, H. Nakai, 
 T. Vreven, K. Throssell, J. A. Montgomery, Jr., J. E. Peralta, 
 F. Ogliaro, M. J. Bearpark, J. J. Heyd, E. N. Brothers, K. N. Kudin, 
 V. N. Staroverov, T. A. Keith, R. Kobayashi, J. Normand, 
 K. Raghavachari, A. P. Rendell, J. C. Burant, S. S. Iyengar, 
 J. Tomasi, M. Cossi, J. M. Millam, M. Klene, C. Adamo, R. Cammi, 
 J. W. Ochterski, R. L. Martin, K. Morokuma, O. Farkas, 
 J. B. Foresman, and D. J. Fox, Gaussian, Inc., Wallingford CT, 2016.
 
 ******************************************
 Gaussian 16:  ES64L-G16RevA.03 25-Dec-2016
                 5-Nov-2023 
 ******************************************
 %mem=10GB
 %nprocshared=20
 Will use up to   20 processors via shared memory.
 ----------------------------------------------------------------------
 # opt=(calcfc,ts,noeigentest) freq 6-31+g(d,p) scrf=(smd,solvent=water
 ) integral=grid=ultrafine m062x
 ----------------------------------------------------------------------
 1/5=1,10=4,11=1,18=20,26=6,38=1/1,3;
 2/9=110,12=2,17=6,18=5,40=1/2;
 3/5=1,6=6,7=111,11=2,25=1,30=1,70=32201,71=2,72=1,74=-55,75=-5,140=1/1,2,3;
 4//1;
 5/5=2,38=5,53=1/2;
 8/6=4,10=90,11=11/1;
 11/6=1,8=1,9=11,15=111,16=1/1,2,10;
 10/6=1,13=1/2;
 6/7=2,8=2,9=2,10=2,28=1/1;
 7/10=1,18=20,25=1/1,2,3,16;
 1/5=1,10=4,11=1,18=20,26=6/3(2);
 2/9=110/2;
 99//99;
 2/9=110/2;
 3/5=1,6=6,7=111,11=2,25=1,30=1,70=32205,71=1,72=1,74=-55,75=-5/1,2,3;
 4/5=5,16=3,69=1/1;
 5/5=2,38=5,53=1/2;
 7//1,2,3,16;
 1/5=1,11=1,18=20,26=6/3(-5);
 2/9=110/2;
 6/7=2,8=2,9=2,10=2,19=2,28=1/1;
 99/9=1/99;
 -------------------
 Title Card Required
 -------------------
 Symbolic Z-matrix:
 Charge =  0 Multiplicity = 1
 N                     0.16628   0.94867  -0.08969 
 N                     0.44174  -0.36617  -0.04014 
 C                     1.77418  -0.53433   0.03695 
 C                     2.36864   0.71649   0.03066 
 C                     1.31133   1.6262   -0.04223 
 H                     2.19463  -1.52814   0.07182 
 H                     3.42277   0.94094   0.0693 
 C                    -0.63025  -1.40887  -0.01958 
 O                    -0.18894  -2.54294   0.12465 
 O                    -1.77619  -0.95132  -0.15706 
 H                    -1.02983   1.37588  -0.08132 
 H                     1.30689   2.70646  -0.06735 
 O                    -2.19986   1.55958  -0.26492 
 H                    -2.21749   0.28353  -0.04451 
 H                    -2.86241   2.22282  -0.02402 
 
 Add virtual bond connecting atoms O13        and H11        Dist= 2.26D+00.
 Add virtual bond connecting atoms H11        and N1         Dist= 2.40D+00.
 Add virtual bond connecting atoms H14        and O10        Dist= 2.49D+00.
 Add virtual bond connecting atoms H14        and O13        Dist= 2.45D+00.

 GradGradGradGradGradGradGradGradGradGradGradGradGradGradGradGradGradGrad
 Berny optimization.
 Initialization pass.
                           ----------------------------
                           !    Initial Parameters    !
                           ! (Angstroms and Degrees)  !
 --------------------------                            --------------------------
 ! Name  Definition              Value          Derivative Info.                !
 --------------------------------------------------------------------------------
 ! R1    R(1,2)                  1.3443         calculate D2E/DX2 analytically  !
 ! R2    R(1,5)                  1.3313         calculate D2E/DX2 analytically  !
 ! R3    R(1,11)                 1.2701         calculate D2E/DX2 analytically  !
 ! R4    R(2,3)                  1.3452         calculate D2E/DX2 analytically  !
 ! R5    R(2,8)                  1.4956         calculate D2E/DX2 analytically  !
 ! R6    R(3,4)                  1.3849         calculate D2E/DX2 analytically  !
 ! R7    R(3,6)                  1.0797         calculate D2E/DX2 analytically  !
 ! R8    R(4,5)                  1.3967         calculate D2E/DX2 analytically  !
 ! R9    R(4,7)                  1.0785         calculate D2E/DX2 analytically  !
 ! R10   R(5,12)                 1.0806         calculate D2E/DX2 analytically  !
 ! R11   R(8,9)                  1.2254         calculate D2E/DX2 analytically  !
 ! R12   R(8,10)                 1.2415         calculate D2E/DX2 analytically  !
 ! R13   R(10,14)                1.3162         calculate D2E/DX2 analytically  !
 ! R14   R(11,13)                1.1985         calculate D2E/DX2 analytically  !
 ! R15   R(13,14)                1.2951         calculate D2E/DX2 analytically  !
 ! R16   R(13,15)                0.9679         calculate D2E/DX2 analytically  !
 ! A1    A(2,1,5)              108.676          calculate D2E/DX2 analytically  !
 ! A2    A(2,1,11)             121.4462         calculate D2E/DX2 analytically  !
 ! A3    A(5,1,11)             129.683          calculate D2E/DX2 analytically  !
 ! A4    A(1,2,3)              109.1068         calculate D2E/DX2 analytically  !
 ! A5    A(1,2,8)              122.3808         calculate D2E/DX2 analytically  !
 ! A6    A(3,2,8)              128.4636         calculate D2E/DX2 analytically  !
 ! A7    A(2,3,4)              108.1802         calculate D2E/DX2 analytically  !
 ! A8    A(2,3,6)              120.1751         calculate D2E/DX2 analytically  !
 ! A9    A(4,3,6)              131.6326         calculate D2E/DX2 analytically  !
 ! A10   A(3,4,5)              105.2816         calculate D2E/DX2 analytically  !
 ! A11   A(3,4,7)              127.3998         calculate D2E/DX2 analytically  !
 ! A12   A(5,4,7)              127.3181         calculate D2E/DX2 analytically  !
 ! A13   A(1,5,4)              108.7519         calculate D2E/DX2 analytically  !
 ! A14   A(1,5,12)             120.292          calculate D2E/DX2 analytically  !
 ! A15   A(4,5,12)             130.9554         calculate D2E/DX2 analytically  !
 ! A16   A(2,8,9)              112.8736         calculate D2E/DX2 analytically  !
 ! A17   A(2,8,10)             113.7727         calculate D2E/DX2 analytically  !
 ! A18   A(9,8,10)             133.3528         calculate D2E/DX2 analytically  !
 ! A19   A(8,10,14)            130.2239         calculate D2E/DX2 analytically  !
 ! A20   A(11,13,14)            80.5719         calculate D2E/DX2 analytically  !
 ! A21   A(11,13,15)           137.3187         calculate D2E/DX2 analytically  !
 ! A22   A(14,13,15)           128.5703         calculate D2E/DX2 analytically  !
 ! A23   A(10,14,13)           154.8674         calculate D2E/DX2 analytically  !
 ! A24   L(1,11,13,10,-1)      169.0916         calculate D2E/DX2 analytically  !
 ! A25   L(1,11,13,10,-2)      188.9618         calculate D2E/DX2 analytically  !
 ! D1    D(5,1,2,3)             -0.1266         calculate D2E/DX2 analytically  !
 ! D2    D(5,1,2,8)            177.5335         calculate D2E/DX2 analytically  !
 ! D3    D(11,1,2,3)          -175.5184         calculate D2E/DX2 analytically  !
 ! D4    D(11,1,2,8)             2.1417         calculate D2E/DX2 analytically  !
 ! D5    D(2,1,5,4)              0.4561         calculate D2E/DX2 analytically  !
 ! D6    D(2,1,5,12)          -179.8165         calculate D2E/DX2 analytically  !
 ! D7    D(11,1,5,4)           175.3464         calculate D2E/DX2 analytically  !
 ! D8    D(11,1,5,12)           -4.9262         calculate D2E/DX2 analytically  !
 ! D9    D(2,1,13,14)            8.7593         calculate D2E/DX2 analytically  !
 ! D10   D(2,1,13,15)          147.6538         calculate D2E/DX2 analytically  !
 ! D11   D(5,1,13,14)         -172.1221         calculate D2E/DX2 analytically  !
 ! D12   D(5,1,13,15)          -33.2276         calculate D2E/DX2 analytically  !
 ! D13   D(1,2,3,4)             -0.2555         calculate D2E/DX2 analytically  !
 ! D14   D(1,2,3,6)           -179.1326         calculate D2E/DX2 analytically  !
 ! D15   D(8,2,3,4)           -177.7316         calculate D2E/DX2 analytically  !
 ! D16   D(8,2,3,6)              3.3912         calculate D2E/DX2 analytically  !
 ! D17   D(1,2,8,9)           -174.9965         calculate D2E/DX2 analytically  !
 ! D18   D(1,2,8,10)             5.2987         calculate D2E/DX2 analytically  !
 ! D19   D(3,2,8,9)              2.1794         calculate D2E/DX2 analytically  !
 ! D20   D(3,2,8,10)          -177.5255         calculate D2E/DX2 analytically  !
 ! D21   D(2,3,4,5)              0.514          calculate D2E/DX2 analytically  !
 ! D22   D(2,3,4,7)           -179.2405         calculate D2E/DX2 analytically  !
 ! D23   D(6,3,4,5)            179.2152         calculate D2E/DX2 analytically  !
 ! D24   D(6,3,4,7)             -0.5392         calculate D2E/DX2 analytically  !
 ! D25   D(3,4,5,1)             -0.5957         calculate D2E/DX2 analytically  !
 ! D26   D(3,4,5,12)           179.7159         calculate D2E/DX2 analytically  !
 ! D27   D(7,4,5,1)            179.159          calculate D2E/DX2 analytically  !
 ! D28   D(7,4,5,12)            -0.5294         calculate D2E/DX2 analytically  !
 ! D29   D(2,8,10,14)          -15.623          calculate D2E/DX2 analytically  !
 ! D30   D(9,8,10,14)          164.7509         calculate D2E/DX2 analytically  !
 ! D31   D(8,10,14,13)          48.4154         calculate D2E/DX2 analytically  !
 ! D32   D(11,13,14,10)        -42.3314         calculate D2E/DX2 analytically  !
 ! D33   D(15,13,14,10)        172.512          calculate D2E/DX2 analytically  !
 --------------------------------------------------------------------------------
 Trust Radius=3.00D-01 FncErr=5.00D-06 GrdErr=5.00D-06 EigMax=2.50D+02 EigMin=1.00D-04
 Number of steps in this run=     84 maximum allowed number of steps=    100.
 Search for a saddle point of order  1.
 GradGradGradGradGradGradGradGradGradGradGradGradGradGradGradGradGradGrad

                          Input orientation:                          
 ---------------------------------------------------------------------
 Center     Atomic      Atomic             Coordinates (Angstroms)
 Number     Number       Type             X           Y           Z
 ---------------------------------------------------------------------
      1          7           0        0.166284    0.948665   -0.089687
      2          7           0        0.441735   -0.366174   -0.040144
      3          6           0        1.774176   -0.534327    0.036950
      4          6           0        2.368636    0.716487    0.030661
      5          6           0        1.311330    1.626197   -0.042225
      6          1           0        2.194629   -1.528141    0.071819
      7          1           0        3.422770    0.940942    0.069304
      8          6           0       -0.630246   -1.408870   -0.019581
      9          8           0       -0.188939   -2.542937    0.124650
     10          8           0       -1.776186   -0.951316   -0.157059
     11          1           0       -1.029828    1.375878   -0.081320
     12          1           0        1.306886    2.706459   -0.067352
     13          8           0       -2.199858    1.559581   -0.264923
     14          1           0       -2.217488    0.283532   -0.044506
     15          1           0       -2.862408    2.222820   -0.024024
 ---------------------------------------------------------------------
                    Distance matrix (angstroms):
                    1          2          3          4          5
     1  N    0.000000
     2  N    1.344295   0.000000
     3  C    2.191031   1.345220   0.000000
     4  C    2.217824   2.211361   1.384904   0.000000
     5  C    1.331327   2.173877   2.210963   1.396703   0.000000
     6  H    3.205438   2.106025   1.079659   2.251739   3.277662
     7  H    3.260374   3.256854   2.212539   1.078458   2.222654
     8  C    2.489447   1.495587   2.559153   3.675998   3.603035
     9  O    3.516164   2.272268   2.809987   4.144137   4.433997
    10  O    2.718024   2.296788   3.580026   4.471728   4.023620
    11  H    1.270144   2.280776   3.394895   3.463654   2.354827
    12  H    2.095546   3.192225   3.275963   2.257633   1.080563
    13  O    2.450011   3.276747   4.502058   4.655031   3.518874
    14  H    2.475240   2.737444   4.075403   4.607128   3.775620
    15  H    3.286451   4.197679   5.394765   5.443882   4.216204
                    6          7          8          9         10
     6  H    0.000000
     7  H    2.757663   0.000000
     8  C    2.828869   4.685772   0.000000
     9  O    2.591138   5.018458   1.225423   0.000000
    10  O    4.019015   5.537240   1.241545   2.265385   0.000000
    11  H    4.342108   4.476326   2.813947   4.013307   2.445121
    12  H    4.328891   2.759110   4.548703   5.461732   4.784631
    13  O    5.381351   5.666424   3.366835   4.585436   2.548674
    14  H    4.771002   5.679582   2.320384   3.483181   1.316155
    15  H    6.297025   6.415246   4.262832   5.466441   3.357487
                   11         12         13         14         15
    11  H    0.000000
    12  H    2.689029   0.000000
    13  O    1.198510   3.694809   0.000000
    14  H    1.614035   4.276951   1.295067   0.000000
    15  H    2.019639   4.197475   0.967931   2.043815   0.000000
 Stoichiometry    C4H6N2O3
 Framework group  C1[X(C4H6N2O3)]
 Deg. of freedom    39
 Full point group                 C1      NOp   1
 Largest Abelian subgroup         C1      NOp   1
 Largest concise Abelian subgroup C1      NOp   1
                         Standard orientation:                         
 ---------------------------------------------------------------------
 Center     Atomic      Atomic             Coordinates (Angstroms)
 Number     Number       Type             X           Y           Z
 ---------------------------------------------------------------------
      1          7           0        0.384794    0.929306   -0.002226
      2          7           0        0.343174   -0.414113   -0.027216
      3          6           0        1.599977   -0.893745   -0.023155
      4          6           0        2.472687    0.181346   -0.000455
      5          6           0        1.658517    1.316010    0.020635
      6          1           0        1.774515   -1.958727   -0.054980
      7          1           0        3.550690    0.150112   -0.002963
      8          6           0       -0.943461   -1.176183   -0.002707
      9          8           0       -0.777842   -2.388357    0.067060
     10          8           0       -1.952959   -0.455941   -0.062702
     11          1           0       -0.675265    1.623601    0.084337
     12          1           0        1.908703    2.366908    0.045875
     13          8           0       -1.774587    2.086312   -0.033201
     14          1           0       -2.085364    0.839517    0.128405
     15          1           0       -2.252279    2.871560    0.270257
 ---------------------------------------------------------------------
 Rotational constants (GHZ):           2.0523820           1.6661631           0.9204988
 Standard basis: 6-31+G(d,p) (6D, 7F)
 There are   201 symmetry adapted cartesian basis functions of A   symmetry.
 There are   201 symmetry adapted basis functions of A   symmetry.
   201 basis functions,   330 primitive gaussians,   201 cartesian basis functions
    34 alpha electrons       34 beta electrons
       nuclear repulsion energy       458.3346940437 Hartrees.
 NAtoms=   15 NActive=   15 NUniq=   15 SFac= 1.00D+00 NAtFMM=   60 NAOKFM=F Big=F
 Integral buffers will be    131072 words long.
 Raffenetti 2 integral format.
 Two-electron integral symmetry is turned on.
 Force inversion solution in PCM.
 ------------------------------------------------------------------------------
 Polarizable Continuum Model (PCM)
 =================================
 Model                : PCM.
 Atomic radii         : SMD-Coulomb.
 Polarization charges : Total charges.
 Charge compensation  : None.
 Solution method      : Matrix inversion.
 Cavity type          : VdW (van der Waals Surface) (Alpha=1.000).
 Cavity algorithm     : GePol (No added spheres)
                        Default sphere list used, NSphG=   15.
                        Lebedev-Laikov grids with approx.  5.0 points / Ang**2.
                        Smoothing algorithm: York/Karplus (Gamma=1.0000).
                        Polarization charges: spherical gaussians, with
                                              point-specific exponents (IZeta= 3).
                        Self-potential: point-specific (ISelfS= 7).
                        Self-field    : sphere-specific E.n sum rule (ISelfD= 2).
 1st derivatives      : Analytical E(r).r(x)/FMM algorithm (CHGder, D1EAlg=3).
                        Cavity 1st derivative terms included.
 2nd derivatives      : Analytical E(r).r(xy)/FMM algorithm (CHGder, D2EAlg=3).
                        Cavity 2nd derivative terms included.
 Solvent              : Water, Eps=  78.355300 Eps(inf)=   1.777849
 ------------------------------------------------------------------------------
 Spheres list:
 ISph  on   Nord     Re0    Alpha      Xe            Ye            Ze
    1   N      1    1.8900  1.000      0.384794      0.929306     -0.002226
    2   N      2    1.8900  1.000      0.343174     -0.414113     -0.027216
    3   C      3    1.8500  1.000      1.599977     -0.893745     -0.023155
    4   C      4    1.8500  1.000      2.472687      0.181346     -0.000455
    5   C      5    1.8500  1.000      1.658517      1.316010      0.020635
    6   H      6    1.2000  1.000      1.774515     -1.958727     -0.054980
    7   H      7    1.2000  1.000      3.550690      0.150112     -0.002963
    8   C      8    1.8500  1.000     -0.943461     -1.176183     -0.002707
    9   O      9    1.5200  1.000     -0.777842     -2.388357      0.067060
   10   O     10    1.5200  1.000     -1.952959     -0.455941     -0.062702
   11   H     11    1.2000  1.000     -0.675265      1.623601      0.084337
   12   H     12    1.2000  1.000      1.908703      2.366908      0.045875
   13   O     13    1.5200  1.000     -1.774587      2.086312     -0.033201
   14   H     14    1.2000  1.000     -2.085364      0.839517      0.128405
   15   H     15    1.2000  1.000     -2.252279      2.871560      0.270257
 ------------------------------------------------------------------------------
 ------------------------------------------------------------------------------
 Atomic radii for non-electrostatic terms: SMD-CDS.
 ------------------------------------------------------------------------------
 Nuclear repulsion after PCM non-electrostatic terms =      458.3441741905 Hartrees.
 One-electron integrals computed using PRISM.
 NBasis=   201 RedAO= T EigKep=  3.20D-05  NBF=   201
 NBsUse=   201 1.00D-06 EigRej= -1.00D+00 NBFU=   201
 ExpMin= 4.38D-02 ExpMax= 5.48D+03 ExpMxC= 8.25D+02 IAcc=3 IRadAn=         5 AccDes= 0.00D+00
 Harris functional with IExCor= 1009 and IRadAn=       5 diagonalized for initial guess.
 HarFok:  IExCor= 1009 AccDes= 0.00D+00 IRadAn=         5 IDoV= 1 UseB2=F ITyADJ=14
 ICtDFT=  3500011 ScaDFX=  1.000000  1.000000  1.000000  1.000000
 FoFCou: FMM=F IPFlag=           0 FMFlag=      100000 FMFlg1=           0
         NFxFlg=           0 DoJE=T BraDBF=F KetDBF=T FulRan=T
         wScrn=  0.000000 ICntrl=       500 IOpCl=  0 I1Cent=   200000004 NGrid=           0
         NMat0=    1 NMatS0=      1 NMatT0=    0 NMatD0=    1 NMtDS0=    0 NMtDT0=    0
 Petite list used in FoFCou.
 Requested convergence on RMS density matrix=1.00D-08 within 128 cycles.
 Requested convergence on MAX density matrix=1.00D-06.
 Requested convergence on             energy=1.00D-06.
 No special actions if energy rises.
 Inv3:  Mode=1 IEnd=     4085667.
 Iteration    1 A*A^-1 deviation from unit magnitude is 5.11D-15 for    567.
 Iteration    1 A*A^-1 deviation from orthogonality  is 1.45D-15 for   1133    733.
 Iteration    1 A^-1*A deviation from unit magnitude is 4.66D-15 for    567.
 Iteration    1 A^-1*A deviation from orthogonality  is 1.99D-15 for    695    109.
 Error on total polarization charges =  0.04723
 SCF Done:  E(RM062X) =  -491.033436962     A.U. after   14 cycles
            NFock= 14  Conv=0.37D-08     -V/T= 2.0087
 SMD-CDS (non-electrostatic) energy       (kcal/mol) =       5.95
 (included in total energy above)
 DoSCS=F DFT=T ScalE2(SS,OS)=  1.000000  1.000000
 Range of M.O.s used for correlation:     1   201
 NBasis=   201 NAE=    34 NBE=    34 NFC=     0 NFV=     0
 NROrb=    201 NOA=    34 NOB=    34 NVA=   167 NVB=   167

 **** Warning!!: The largest alpha MO coefficient is  0.52760930D+02

 Symmetrizing basis deriv contribution to polar:
 IMax=3 JMax=2 DiffMx= 0.00D+00
 G2DrvN: will do    16 centers at a time, making    1 passes.
 Calling FoFCou, ICntrl=  3107 FMM=F I1Cent=   0 AccDes= 0.00D+00.
 NEqPCM:  Using equilibrium solvation (IEInf=0, Eps=  78.3553, EpsInf=   1.7778)
 G2PCM: DoFxE=T DoFxN=T DoGrad=T DoDP/DQ/DG/TGxP=FFFF NFrqRd=   0 IEInf=0 SqF1=F DoCFld=F IF1Alg=4.
 End of G2Drv F.D. properties file   721 does not exist.
 End of G2Drv F.D. properties file   722 does not exist.
 End of G2Drv F.D. properties file   788 does not exist.
          IDoAtm=111111111111111
 NEqPCM:  Using equilibrium solvation (IEInf=0, Eps=  78.3553, EpsInf=   1.7778)
          Differentiating once with respect to nuclear coordinates.
 Keep R1 ints in memory in canonical form, NReq=226616993.
          There are    48 degrees of freedom in the 1st order CPHF.  IDoFFX=6 NUNeed=     0.
     42 vectors produced by pass  0 Test12= 1.18D-14 2.08D-09 XBig12= 1.40D-01 9.36D-02.
 AX will form    42 AO Fock derivatives at one time.
     42 vectors produced by pass  1 Test12= 1.18D-14 2.08D-09 XBig12= 1.20D-02 3.37D-02.
     42 vectors produced by pass  2 Test12= 1.18D-14 2.08D-09 XBig12= 2.96D-04 2.69D-03.
     42 vectors produced by pass  3 Test12= 1.18D-14 2.08D-09 XBig12= 2.78D-06 2.42D-04.
     42 vectors produced by pass  4 Test12= 1.18D-14 2.08D-09 XBig12= 2.51D-08 1.40D-05.
     42 vectors produced by pass  5 Test12= 1.18D-14 2.08D-09 XBig12= 1.64D-10 1.66D-06.
     34 vectors produced by pass  6 Test12= 1.18D-14 2.08D-09 XBig12= 7.25D-13 1.11D-07.
      6 vectors produced by pass  7 Test12= 1.18D-14 2.08D-09 XBig12= 2.74D-15 5.28D-09.
 InvSVY:  IOpt=1 It=  1 EMax= 2.11D-15
 Solved reduced A of dimension   292 with    42 vectors.
 End of Minotr F.D. properties file   721 does not exist.
 End of Minotr F.D. properties file   722 does not exist.
 End of Minotr F.D. properties file   788 does not exist.

 **********************************************************************

            Population analysis using the SCF density.

 **********************************************************************

 Orbital symmetries:
       Occupied  (A) (A) (A) (A) (A) (A) (A) (A) (A) (A) (A) (A)
                 (A) (A) (A) (A) (A) (A) (A) (A) (A) (A) (A) (A)
                 (A) (A) (A) (A) (A) (A) (A) (A) (A) (A)
       Virtual   (A) (A) (A) (A) (A) (A) (A) (A) (A) (A) (A) (A)
                 (A) (A) (A) (A) (A) (A) (A) (A) (A) (A) (A) (A)
                 (A) (A) (A) (A) (A) (A) (A) (A) (A) (A) (A) (A)
                 (A) (A) (A) (A) (A) (A) (A) (A) (A) (A) (A) (A)
                 (A) (A) (A) (A) (A) (A) (A) (A) (A) (A) (A) (A)
                 (A) (A) (A) (A) (A) (A) (A) (A) (A) (A) (A) (A)
                 (A) (A) (A) (A) (A) (A) (A) (A) (A) (A) (A) (A)
                 (A) (A) (A) (A) (A) (A) (A) (A) (A) (A) (A) (A)
                 (A) (A) (A) (A) (A) (A) (A) (A) (A) (A) (A) (A)
                 (A) (A) (A) (A) (A) (A) (A) (A) (A) (A) (A) (A)
                 (A) (A) (A) (A) (A) (A) (A) (A) (A) (A) (A) (A)
                 (A) (A) (A) (A) (A) (A) (A) (A) (A) (A) (A) (A)
                 (A) (A) (A) (A) (A) (A) (A) (A) (A) (A) (A) (A)
                 (A) (A) (A) (A) (A) (A) (A) (A) (A) (A) (A)
 The electronic state is 1-A.
 Alpha  occ. eigenvalues --  -19.67722 -19.65075 -19.64962 -14.87148 -14.83588
 Alpha  occ. eigenvalues --  -10.74066 -10.60811 -10.60458 -10.56219  -1.25440
 Alpha  occ. eigenvalues --   -1.19326  -1.15343  -1.11288  -0.96058  -0.90834
 Alpha  occ. eigenvalues --   -0.75075  -0.71285  -0.70309  -0.67298  -0.60246
 Alpha  occ. eigenvalues --   -0.58767  -0.57834  -0.55610  -0.52486  -0.51832
 Alpha  occ. eigenvalues --   -0.49402  -0.48354  -0.43573  -0.40955  -0.40354
 Alpha  occ. eigenvalues --   -0.39271  -0.38383  -0.35176  -0.33316
 Alpha virt. eigenvalues --   -0.00813   0.01829   0.03654   0.04121   0.04621
 Alpha virt. eigenvalues --    0.05777   0.06389   0.06811   0.06840   0.08971
 Alpha virt. eigenvalues --    0.09455   0.10208   0.10906   0.11100   0.12156
 Alpha virt. eigenvalues --    0.13777   0.14593   0.15681   0.17178   0.18937
 Alpha virt. eigenvalues --    0.20155   0.20283   0.20785   0.20868   0.21825
 Alpha virt. eigenvalues --    0.22666   0.24190   0.25195   0.25656   0.25830
 Alpha virt. eigenvalues --    0.26111   0.26579   0.26846   0.28882   0.29240
 Alpha virt. eigenvalues --    0.29655   0.30245   0.31350   0.31863   0.33211
 Alpha virt. eigenvalues --    0.34248   0.35045   0.36492   0.38891   0.39936
 Alpha virt. eigenvalues --    0.42489   0.42779   0.43952   0.47113   0.48754
 Alpha virt. eigenvalues --    0.49476   0.51702   0.66069   0.71285   0.74221
 Alpha virt. eigenvalues --    0.75002   0.75441   0.77926   0.79298   0.82345
 Alpha virt. eigenvalues --    0.86616   0.88923   0.90791   0.92195   0.94800
 Alpha virt. eigenvalues --    0.96550   0.98298   0.99643   1.00377   1.03728
 Alpha virt. eigenvalues --    1.07539   1.09383   1.12165   1.15543   1.16879
 Alpha virt. eigenvalues --    1.19990   1.20933   1.23821   1.25509   1.26528
 Alpha virt. eigenvalues --    1.29579   1.30070   1.33165   1.33591   1.34984
 Alpha virt. eigenvalues --    1.35125   1.38479   1.38635   1.39997   1.41278
 Alpha virt. eigenvalues --    1.42845   1.46277   1.47742   1.49060   1.51279
 Alpha virt. eigenvalues --    1.56570   1.57948   1.60517   1.61370   1.63693
 Alpha virt. eigenvalues --    1.65786   1.73447   1.75859   1.76353   1.80179
 Alpha virt. eigenvalues --    1.83165   1.84768   1.90948   1.91899   1.95462
 Alpha virt. eigenvalues --    1.98283   1.99065   2.00616   2.04122   2.06460
 Alpha virt. eigenvalues --    2.11066   2.12144   2.15613   2.17108   2.23556
 Alpha virt. eigenvalues --    2.25451   2.26815   2.30661   2.33198   2.34577
 Alpha virt. eigenvalues --    2.39171   2.40465   2.40935   2.43335   2.47517
 Alpha virt. eigenvalues --    2.49254   2.54123   2.55411   2.58177   2.59910
 Alpha virt. eigenvalues --    2.63525   2.64923   2.71301   2.73351   2.76256
 Alpha virt. eigenvalues --    2.77751   2.79699   2.84399   2.87454   2.92858
 Alpha virt. eigenvalues --    2.99164   3.02863   3.06060   3.12790   3.14774
 Alpha virt. eigenvalues --    3.23253   3.26092   3.30599   3.45382   3.59345
 Alpha virt. eigenvalues --    3.67407   3.79506   3.86225   4.13440   4.24844
 Alpha virt. eigenvalues --    4.35406   4.44344   4.51438   4.56073   4.68273
 Alpha virt. eigenvalues --    4.74299   4.77817
          Condensed to atoms (all electrons):
               1          2          3          4          5          6
     1  N    7.349125  -0.171746  -0.038801  -0.051960   0.133911   0.010341
     2  N   -0.171746   7.291014   0.286165  -0.246087   0.215736  -0.056349
     3  C   -0.038801   0.286165   5.461194   0.285452  -0.032227   0.424713
     4  C   -0.051960  -0.246087   0.285452   5.292904   0.341250  -0.031323
     5  C    0.133911   0.215736  -0.032227   0.341250   5.251499  -0.004458
     6  H    0.010341  -0.056349   0.424713  -0.031323  -0.004458   0.414140
     7  H    0.010817  -0.002664  -0.000946   0.343539  -0.009805  -0.000611
     8  C    0.023387   0.095180  -0.126524   0.010010  -0.014603  -0.009000
     9  O   -0.001439  -0.113827  -0.062339   0.038798   0.003504   0.000575
    10  O   -0.018906  -0.100091   0.027646   0.007447  -0.005284  -0.000412
    11  H    0.144021  -0.019961   0.010983  -0.000522  -0.004052  -0.000016
    12  H   -0.071243   0.027970  -0.004428  -0.026633   0.409115  -0.000076
    13  O   -0.084198   0.022974   0.001621  -0.003875  -0.011386   0.000058
    14  H    0.014660  -0.005282  -0.003524   0.001580   0.000920   0.000000
    15  H    0.006081  -0.000525  -0.000031   0.000124   0.000353  -0.000000
               7          8          9         10         11         12
     1  N    0.010817   0.023387  -0.001439  -0.018906   0.144021  -0.071243
     2  N   -0.002664   0.095180  -0.113827  -0.100091  -0.019961   0.027970
     3  C   -0.000946  -0.126524  -0.062339   0.027646   0.010983  -0.004428
     4  C    0.343539   0.010010   0.038798   0.007447  -0.000522  -0.026633
     5  C   -0.009805  -0.014603   0.003504  -0.005284  -0.004052   0.409115
     6  H   -0.000611  -0.009000   0.000575  -0.000412  -0.000016  -0.000076
     7  H    0.432296  -0.001258  -0.000080   0.000049  -0.000047  -0.000660
     8  C   -0.001258   4.367344   0.491427   0.305378  -0.006498   0.001011
     9  O   -0.000080   0.491427   8.342713  -0.109758   0.000097   0.000067
    10  O    0.000049   0.305378  -0.109758   8.517201   0.007216   0.000014
    11  H   -0.000047  -0.006498   0.000097   0.007216   0.247071  -0.000711
    12  H   -0.000660   0.001011   0.000067   0.000014  -0.000711   0.420047
    13  O    0.000033   0.005255  -0.000443  -0.058548   0.099958   0.000031
    14  H   -0.000000   0.003312   0.000569   0.082251  -0.004969   0.000001
    15  H   -0.000000  -0.000605   0.000005   0.003193  -0.004752  -0.000011
              13         14         15
     1  N   -0.084198   0.014660   0.006081
     2  N    0.022974  -0.005282  -0.000525
     3  C    0.001621  -0.003524  -0.000031
     4  C   -0.003875   0.001580   0.000124
     5  C   -0.011386   0.000920   0.000353
     6  H    0.000058   0.000000  -0.000000
     7  H    0.000033  -0.000000  -0.000000
     8  C    0.005255   0.003312  -0.000605
     9  O   -0.000443   0.000569   0.000005
    10  O   -0.058548   0.082251   0.003193
    11  H    0.099958  -0.004969  -0.004752
    12  H    0.000031   0.000001  -0.000011
    13  O    8.513426   0.155926   0.274224
    14  H    0.155926   0.236761  -0.005426
    15  H    0.274224  -0.005426   0.263204
 Mulliken charges:
               1
     1  N   -0.254051
     2  N   -0.222506
     3  C   -0.228955
     4  C    0.039296
     5  C   -0.274473
     6  H    0.252419
     7  H    0.229337
     8  C    0.856185
     9  O   -0.589869
    10  O   -0.657398
    11  H    0.532181
    12  H    0.245507
    13  O   -0.915056
    14  H    0.523219
    15  H    0.464166
 Sum of Mulliken charges =  -0.00000
 Mulliken charges with hydrogens summed into heavy atoms:
               1
     1  N   -0.254051
     2  N   -0.222506
     3  C    0.023464
     4  C    0.268633
     5  C   -0.028967
     8  C    0.856185
     9  O   -0.589869
    10  O   -0.657398
    13  O    0.604510
 APT charges:
               1
     1  N   -0.301098
     2  N   -0.473060
     3  C   -0.598440
     4  C   -0.445972
     5  C   -0.515119
     6  H    0.628594
     7  H    0.827242
     8  C    0.320428
     9  O   -0.285503
    10  O   -0.506708
    11  H    0.461198
    12  H    0.713816
    13  O   -1.415591
    14  H    0.472273
    15  H    1.117940
 Sum of APT charges =  -0.00000
 APT charges with hydrogens summed into heavy atoms:
               1
     1  N   -0.301098
     2  N   -0.473060
     3  C    0.030153
     4  C    0.381270
     5  C    0.198697
     8  C    0.320428
     9  O   -0.285503
    10  O   -0.506708
    13  O    0.635820
 Electronic spatial extent (au):  <R**2>=           1184.3168
 Charge=             -0.0000 electrons
 Dipole moment (field-independent basis, Debye):
    X=              4.8711    Y=              6.5914    Z=              1.2494  Tot=              8.2906
 Quadrupole moment (field-independent basis, Debye-Ang):
   XX=            -45.3130   YY=            -52.6465   ZZ=            -54.7154
   XY=             -8.8230   XZ=             -2.8298   YZ=              3.5818
 Traceless Quadrupole moment (field-independent basis, Debye-Ang):
   XX=              5.5786   YY=             -1.7548   ZZ=             -3.8237
   XY=             -8.8230   XZ=             -2.8298   YZ=              3.5818
 Octapole moment (field-independent basis, Debye-Ang**2):
  XXX=             15.2836  YYY=             69.7696  ZZZ=              0.8097  XYY=              3.5825
  XXY=             26.0743  XXZ=              6.2727  XZZ=             -8.2799  YZZ=             -1.0373
  YYZ=              6.3188  XYZ=             -5.8401
 Hexadecapole moment (field-independent basis, Debye-Ang**3):
 XXXX=           -705.9739 YYYY=           -599.3665 ZZZZ=            -55.5834 XXXY=            -59.1937
 XXXZ=            -14.9414 YYYX=            -97.3980 YYYZ=             25.4096 ZZZX=             -1.7064
 ZZZY=              2.0337 XXYY=           -178.6885 XXZZ=           -156.8498 YYZZ=           -120.2848
 XXYZ=             14.4128 YYXZ=            -14.8001 ZZXY=             -2.0949
 N-N= 4.583441741905D+02 E-N=-2.064831345339D+03  KE= 4.867853543097D+02
  Exact polarizability:   0.000   0.000   0.000   0.000   0.000   0.000
 Approx polarizability:  99.684  -2.693 110.566   0.356  -0.055  53.318
 D2PCM: PCM CHGder 2nd derivatives, FixD1E=F FixD2E=F DoIter=F DoCFld=F I1PDM=0
 Calling FoFJK, ICntrl=    100147 FMM=F ISym2X=0 I1Cent= 0 IOpClX= 0 NMat=1 NMatS=1 NMatT=0.
 ***** Axes restored to original set *****
 -------------------------------------------------------------------
 Center     Atomic                   Forces (Hartrees/Bohr)
 Number     Number              X              Y              Z
 -------------------------------------------------------------------
      1        7          -0.011723414    0.009178045    0.002999491
      2        7          -0.005699594    0.005346184    0.001324572
      3        6           0.009098558   -0.004519846   -0.000571818
      4        6           0.004362208   -0.005943789    0.000402436
      5        6          -0.008237183   -0.007099402   -0.001230734
      6        1           0.000953215    0.000162141    0.000565652
      7        1           0.000520289   -0.000841338    0.000210212
      8        6           0.049907044    0.005470303    0.005577914
      9        8          -0.014922360    0.003516113   -0.003366588
     10        8          -0.041276260    0.016479615    0.003016944
     11        1           0.005429607    0.015043508   -0.003503614
     12        1          -0.000012813    0.000030467    0.000122827
     13        8           0.003026709   -0.055781883    0.000285779
     14        1           0.003758357    0.024968837   -0.014449899
     15        1           0.004815638   -0.006008956    0.008616826
 -------------------------------------------------------------------
 Cartesian Forces:  Max     0.055781883 RMS     0.014700708
 FormGI is forming the generalized inverse of G from B-inverse, IUseBI=4.

 GradGradGradGradGradGradGradGradGradGradGradGradGradGradGradGradGradGrad
 Berny optimization.
 Internal  Forces:  Max     0.046361405 RMS     0.008485249
 Search for a saddle point.
 Step number   1 out of a maximum of   84
 All quantities printed in internal units (Hartrees-Bohrs-Radians)
 Swapping is turned off.
 Second derivative matrix not updated -- analytic derivatives used.
 ITU=  0
     Eigenvalues ---   -0.06798  -0.01424  -0.00170   0.00227   0.00313
     Eigenvalues ---    0.00380   0.00610   0.01291   0.01640   0.02149
     Eigenvalues ---    0.02469   0.03261   0.03853   0.04535   0.05562
     Eigenvalues ---    0.07428   0.07710   0.09260   0.09587   0.10457
     Eigenvalues ---    0.11057   0.11451   0.13824   0.20463   0.22561
     Eigenvalues ---    0.24277   0.25937   0.33130   0.35914   0.38319
     Eigenvalues ---    0.38724   0.38841   0.41624   0.44190   0.48242
     Eigenvalues ---    0.53424   0.57939   0.61826   0.85442
 Eigenvectors required to have negative eigenvalues:
                          R15       R13       R14       R3        A22
   1                   -0.63162   0.60917   0.27991  -0.25353  -0.15171
                          A21       A23       A18       D32       R5
   1                    0.11957  -0.09362   0.07813   0.07645   0.07302
 RFO step:  Lambda0=1.461494481D-03 Lambda=-3.65475116D-02.
 Linear search not attempted -- option 19 set.
 Maximum step size (   0.300) exceeded in Quadratic search.
    -- Step size scaled by   0.397
 Iteration  1 RMS(Cart)=  0.04310857 RMS(Int)=  0.00551313
 Iteration  2 RMS(Cart)=  0.00410928 RMS(Int)=  0.00268254
 Iteration  3 RMS(Cart)=  0.00005159 RMS(Int)=  0.00268200
 Iteration  4 RMS(Cart)=  0.00000062 RMS(Int)=  0.00268200
 Variable       Old X    -DE/DX   Delta X   Delta X   Delta X     New X
                                 (Linear)    (Quad)   (Total)
    R1        2.54035  -0.00100   0.00000   0.00598   0.00542   2.54577
    R2        2.51584  -0.00450   0.00000  -0.00644  -0.00627   2.50958
    R3        2.40022  -0.00516   0.00000   0.11039   0.11156   2.51179
    R4        2.54210   0.00675   0.00000   0.01027   0.01015   2.55224
    R5        2.82625  -0.00750   0.00000  -0.03346  -0.03516   2.79109
    R6        2.61709  -0.00504   0.00000  -0.00794  -0.00809   2.60900
    R7        2.04026   0.00024   0.00000  -0.00020  -0.00020   2.04006
    R8        2.63939   0.00904   0.00000   0.01030   0.01034   2.64972
    R9        2.03799   0.00034   0.00000   0.00038   0.00038   2.03837
   R10        2.04197   0.00003   0.00000   0.00038   0.00038   2.04234
   R11        2.31571  -0.00903   0.00000  -0.00068  -0.00068   2.31503
   R12        2.34618   0.02567   0.00000   0.02178   0.02088   2.36706
   R13        2.48717  -0.02377   0.00000  -0.05689  -0.05667   2.43050
   R14        2.26486  -0.00197   0.00000  -0.10930  -0.10822   2.15663
   R15        2.44732  -0.04636   0.00000  -0.12492  -0.12375   2.32357
   R16        1.82912  -0.00528   0.00000  -0.00194  -0.00194   1.82718
    A1        1.89675  -0.00662   0.00000  -0.01477  -0.01519   1.88156
    A2        2.11964  -0.00295   0.00000  -0.01851  -0.01729   2.10235
    A3        2.26340   0.00961   0.00000   0.03353   0.03280   2.29619
    A4        1.90427   0.00748   0.00000   0.01108   0.01162   1.91589
    A5        2.13595  -0.00501   0.00000   0.00586   0.00454   2.14049
    A6        2.24211  -0.00249   0.00000  -0.01737  -0.01662   2.22549
    A7        1.88810  -0.00482   0.00000  -0.00613  -0.00636   1.88174
    A8        2.09745   0.00339   0.00000   0.00414   0.00425   2.10170
    A9        2.29742   0.00144   0.00000   0.00210   0.00219   2.29962
   A10        1.83751  -0.00079   0.00000  -0.00203  -0.00212   1.83539
   A11        2.22355  -0.00056   0.00000  -0.00044  -0.00039   2.22315
   A12        2.22212   0.00135   0.00000   0.00247   0.00252   2.22464
   A13        1.89808   0.00475   0.00000   0.01186   0.01207   1.91015
   A14        2.09949  -0.00238   0.00000  -0.00292  -0.00303   2.09647
   A15        2.28560  -0.00237   0.00000  -0.00894  -0.00905   2.27656
   A16        1.97002   0.01111   0.00000   0.02002   0.02095   1.99097
   A17        1.98571   0.00723   0.00000   0.02164   0.01979   2.00550
   A18        2.32745  -0.01834   0.00000  -0.04166  -0.04074   2.28671
   A19        2.27284  -0.00804   0.00000  -0.03370  -0.03344   2.23940
   A20        1.40625   0.01800   0.00000   0.05277   0.04959   1.45583
   A21        2.39666  -0.01087   0.00000  -0.17252  -0.17451   2.22216
   A22        2.24397  -0.00698   0.00000  -0.01404  -0.03203   2.21194
   A23        2.70295   0.00345   0.00000   0.02783   0.03365   2.73660
   A24        2.95120  -0.01153   0.00000  -0.06511  -0.06459   2.88661
   A25        3.29800  -0.00502   0.00000  -0.01824  -0.01998   3.27803
    D1       -0.00221  -0.00015   0.00000  -0.00127  -0.00035  -0.00256
    D2        3.09854  -0.00052   0.00000  -0.01185  -0.01078   3.08776
    D3       -3.06337  -0.00100   0.00000  -0.00599  -0.00577  -3.06914
    D4        0.03738  -0.00136   0.00000  -0.01657  -0.01620   0.02118
    D5        0.00796   0.00006   0.00000   0.00062  -0.00024   0.00772
    D6       -3.13839   0.00012   0.00000  -0.00029  -0.00081  -3.13920
    D7        3.06037   0.00013   0.00000   0.00235   0.00249   3.06287
    D8       -0.08598   0.00018   0.00000   0.00144   0.00192  -0.08405
    D9        0.15288  -0.00209   0.00000   0.01237   0.00846   0.16134
   D10        2.57705  -0.00423   0.00000  -0.16232  -0.15630   2.42074
   D11       -3.00410   0.00033   0.00000   0.02671   0.02353  -2.98057
   D12       -0.57993  -0.00181   0.00000  -0.14799  -0.14124  -0.72118
   D13       -0.00446   0.00017   0.00000   0.00142   0.00081  -0.00364
   D14       -3.12645  -0.00031   0.00000  -0.00325  -0.00345  -3.12990
   D15       -3.10200   0.00061   0.00000   0.01206   0.01119  -3.09081
   D16        0.05919   0.00014   0.00000   0.00739   0.00693   0.06612
   D17       -3.05426  -0.00044   0.00000  -0.01019  -0.00971  -3.06397
   D18        0.09248  -0.00003   0.00000  -0.01116  -0.01054   0.08194
   D19        0.03804  -0.00065   0.00000  -0.02210  -0.02125   0.01678
   D20       -3.09840  -0.00024   0.00000  -0.02306  -0.02209  -3.12049
   D21        0.00897  -0.00016   0.00000  -0.00107  -0.00098   0.00799
   D22       -3.12834  -0.00033   0.00000  -0.00228  -0.00198  -3.13031
   D23        3.12790   0.00040   0.00000   0.00435   0.00396   3.13185
   D24       -0.00941   0.00024   0.00000   0.00313   0.00296  -0.00645
   D25       -0.01040  -0.00001   0.00000   0.00016   0.00064  -0.00976
   D26        3.13663  -0.00007   0.00000   0.00117   0.00126   3.13789
   D27        3.12691   0.00016   0.00000   0.00137   0.00163   3.12854
   D28       -0.00924   0.00009   0.00000   0.00237   0.00224  -0.00700
   D29       -0.27267   0.00186   0.00000   0.02543   0.02631  -0.24637
   D30        2.87545   0.00223   0.00000   0.02390   0.02501   2.90045
   D31        0.84501  -0.00082   0.00000   0.05455   0.05722   0.90223
   D32       -0.73882  -0.00096   0.00000  -0.07963  -0.08081  -0.81963
   D33        3.01090   0.00090   0.00000   0.13672   0.14042  -3.13186
         Item               Value     Threshold  Converged?
 Maximum Force            0.046361     0.000450     NO 
 RMS     Force            0.008485     0.000300     NO 
 Maximum Displacement     0.197795     0.001800     NO 
 RMS     Displacement     0.044976     0.001200     NO 
 Predicted change in Energy=-1.414668D-02
 GradGradGradGradGradGradGradGradGradGradGradGradGradGradGradGradGradGrad

                          Input orientation:                          
 ---------------------------------------------------------------------
 Center     Atomic      Atomic             Coordinates (Angstroms)
 Number     Number       Type             X           Y           Z
 ---------------------------------------------------------------------
      1          7           0        0.167892    0.975993   -0.113524
      2          7           0        0.436412   -0.342620   -0.050268
      3          6           0        1.769966   -0.533180    0.046741
      4          6           0        2.375507    0.707546    0.040658
      5          6           0        1.322797    1.628901   -0.054195
      6          1           0        2.177161   -1.531700    0.097560
      7          1           0        3.431473    0.921083    0.094011
      8          6           0       -0.623365   -1.371019   -0.023146
      9          8           0       -0.206965   -2.513999    0.121727
     10          8           0       -1.788670   -0.931289   -0.156156
     11          1           0       -1.089182    1.407504   -0.130395
     12          1           0        1.337449    2.709058   -0.087256
     13          8           0       -2.214736    1.491760   -0.299089
     14          1           0       -2.197193    0.284844   -0.064748
     15          1           0       -2.817052    2.145915    0.080644
 ---------------------------------------------------------------------
                    Distance matrix (angstroms):
                    1          2          3          4          5
     1  N    0.000000
     2  N    1.347161   0.000000
     3  C    2.206792   1.350589   0.000000
     4  C    2.229215   2.207080   1.380622   0.000000
     5  C    1.328011   2.161617   2.210145   1.402173   0.000000
     6  H    3.220286   2.113284   1.079552   2.248733   3.277555
     7  H    3.270634   3.253944   2.208556   1.078661   2.229234
     8  C    2.478451   1.476979   2.536709   3.649347   3.576035
     9  O    3.517941   2.271212   2.799558   4.129659   4.419812
    10  O    2.732705   2.304069   3.586579   4.479384   4.030657
    11  H    1.329180   2.323099   3.460109   3.538823   2.423317
    12  H    2.090949   3.182133   3.273703   2.258313   1.080762
    13  O    2.444865   3.233488   4.483060   4.669127   3.548650
    14  H    2.464487   2.707360   4.052154   4.593406   3.767882
    15  H    3.211901   4.098167   5.312197   5.388244   4.174187
                    6          7          8          9         10
     6  H    0.000000
     7  H    2.754897   0.000000
     8  C    2.807727   4.659310   0.000000
     9  O    2.578672   5.003878   1.225063   0.000000
    10  O    4.019040   5.544706   1.252594   2.254768   0.000000
    11  H    4.399986   4.552283   2.819339   4.027413   2.441290
    12  H    4.327043   2.759465   4.527243   5.450616   4.798905
    13  O    5.346718   5.688574   3.286961   4.500482   2.464371
    14  H    4.739319   5.666736   2.284852   3.439375   1.286167
    15  H    6.202201   6.367453   4.146307   5.341259   3.253126
                   11         12         13         14         15
    11  H    0.000000
    12  H    2.753987   0.000000
    13  O    1.141240   3.760945   0.000000
    14  H    1.578722   4.286142   1.229581   0.000000
    15  H    1.890853   4.195855   0.966903   1.966965   0.000000
 Stoichiometry    C4H6N2O3
 Framework group  C1[X(C4H6N2O3)]
 Deg. of freedom    39
 Full point group                 C1      NOp   1
 Largest Abelian subgroup         C1      NOp   1
 Largest concise Abelian subgroup C1      NOp   1
                         Standard orientation:                         
 ---------------------------------------------------------------------
 Center     Atomic      Atomic             Coordinates (Angstroms)
 Number     Number       Type             X           Y           Z
 ---------------------------------------------------------------------
      1          7           0        0.396181    0.950139   -0.014413
      2          7           0        0.344752   -0.395908   -0.033308
      3          6           0        1.597133   -0.901248   -0.017121
      4          6           0        2.480379    0.159573    0.008406
      5          6           0        1.674886    1.307265    0.017001
      6          1           0        1.756116   -1.968799   -0.039337
      7          1           0        3.558059    0.114309    0.016543
      8          6           0       -0.927795   -1.145016   -0.002842
      9          8           0       -0.790631   -2.360710    0.060831
     10          8           0       -1.958909   -0.435460   -0.051062
     11          1           0       -0.721371    1.666106    0.057636
     12          1           0        1.945409    2.353397    0.038734
     13          8           0       -1.800093    2.023784   -0.046538
     14          1           0       -2.061686    0.834552    0.124240
     15          1           0       -2.213597    2.776479    0.397721
 ---------------------------------------------------------------------
 Rotational constants (GHZ):           2.1159293           1.6513504           0.9286129
 Standard basis: 6-31+G(d,p) (6D, 7F)
 There are   201 symmetry adapted cartesian basis functions of A   symmetry.
 There are   201 symmetry adapted basis functions of A   symmetry.
   201 basis functions,   330 primitive gaussians,   201 cartesian basis functions
    34 alpha electrons       34 beta electrons
       nuclear repulsion energy       459.7348017818 Hartrees.
 NAtoms=   15 NActive=   15 NUniq=   15 SFac= 1.00D+00 NAtFMM=   60 NAOKFM=F Big=F
 Integral buffers will be    131072 words long.
 Raffenetti 2 integral format.
 Two-electron integral symmetry is turned on.
 ------------------------------------------------------------------------------
 Polarizable Continuum Model (PCM)
 =================================
 Model                : PCM.
 Atomic radii         : SMD-Coulomb.
 Polarization charges : Total charges.
 Charge compensation  : None.
 Solution method      : Matrix inversion.
 Cavity type          : VdW (van der Waals Surface) (Alpha=1.000).
 Cavity algorithm     : GePol (No added spheres)
                        Default sphere list used, NSphG=   15.
                        Lebedev-Laikov grids with approx.  5.0 points / Ang**2.
                        Smoothing algorithm: York/Karplus (Gamma=1.0000).
                        Polarization charges: spherical gaussians, with
                                              point-specific exponents (IZeta= 3).
                        Self-potential: point-specific (ISelfS= 7).
                        Self-field    : sphere-specific E.n sum rule (ISelfD= 2).
 1st derivatives      : Analytical E(r).r(x)/FMM algorithm (CHGder, D1EAlg=3).
                        Cavity 1st derivative terms included.
 Solvent              : Water, Eps=  78.355300 Eps(inf)=   1.777849
 ------------------------------------------------------------------------------
 Spheres list:
 ISph  on   Nord     Re0    Alpha      Xe            Ye            Ze
    1   N      1    1.8900  1.000      0.396181      0.950139     -0.014413
    2   N      2    1.8900  1.000      0.344752     -0.395908     -0.033308
    3   C      3    1.8500  1.000      1.597133     -0.901248     -0.017121
    4   C      4    1.8500  1.000      2.480379      0.159573      0.008406
    5   C      5    1.8500  1.000      1.674886      1.307265      0.017001
    6   H      6    1.2000  1.000      1.756116     -1.968799     -0.039337
    7   H      7    1.2000  1.000      3.558059      0.114309      0.016543
    8   C      8    1.8500  1.000     -0.927795     -1.145016     -0.002842
    9   O      9    1.5200  1.000     -0.790631     -2.360710      0.060831
   10   O     10    1.5200  1.000     -1.958909     -0.435460     -0.051062
   11   H     11    1.2000  1.000     -0.721371      1.666106      0.057636
   12   H     12    1.2000  1.000      1.945409      2.353397      0.038734
   13   O     13    1.5200  1.000     -1.800093      2.023784     -0.046538
   14   H     14    1.2000  1.000     -2.061686      0.834552      0.124240
   15   H     15    1.2000  1.000     -2.213597      2.776479      0.397721
 ------------------------------------------------------------------------------
 ------------------------------------------------------------------------------
 Atomic radii for non-electrostatic terms: SMD-CDS.
 ------------------------------------------------------------------------------
 Nuclear repulsion after PCM non-electrostatic terms =      459.7441628909 Hartrees.
 One-electron integrals computed using PRISM.
 NBasis=   201 RedAO= T EigKep=  3.32D-05  NBF=   201
 NBsUse=   201 1.00D-06 EigRej= -1.00D+00 NBFU=   201
 Initial guess from the checkpoint file:  "/scratch/gongke2021/bizuo-TS/Gau-5964.chk"
 B after Tr=     0.000000   -0.000000   -0.000000
         Rot=    1.000000   -0.000084   -0.000123    0.000453 Ang=  -0.05 deg.
 ExpMin= 4.38D-02 ExpMax= 5.48D+03 ExpMxC= 8.25D+02 IAcc=2 IRadAn=         4 AccDes= 0.00D+00
 Harris functional with IExCor= 1009 and IRadAn=       4 diagonalized for initial guess.
 HarFok:  IExCor= 1009 AccDes= 0.00D+00 IRadAn=         4 IDoV= 1 UseB2=F ITyADJ=14
 ICtDFT=  3500011 ScaDFX=  1.000000  1.000000  1.000000  1.000000
 FoFCou: FMM=F IPFlag=           0 FMFlag=      100000 FMFlg1=           0
         NFxFlg=           0 DoJE=T BraDBF=F KetDBF=T FulRan=T
         wScrn=  0.000000 ICntrl=       500 IOpCl=  0 I1Cent=   200000004 NGrid=           0
         NMat0=    1 NMatS0=      1 NMatT0=    0 NMatD0=    1 NMtDS0=    0 NMtDT0=    0
 Petite list used in FoFCou.
 Requested convergence on RMS density matrix=1.00D-08 within 128 cycles.
 Requested convergence on MAX density matrix=1.00D-06.
 Requested convergence on             energy=1.00D-06.
 No special actions if energy rises.
 Inv3:  Mode=1 IEnd=     4155987.
 Iteration    1 A*A^-1 deviation from unit magnitude is 4.22D-15 for    560.
 Iteration    1 A*A^-1 deviation from orthogonality  is 2.40D-15 for   1176   1026.
 Iteration    1 A^-1*A deviation from unit magnitude is 4.44D-15 for    554.
 Iteration    1 A^-1*A deviation from orthogonality  is 2.13D-15 for   1151   1004.
 Error on total polarization charges =  0.04667
 SCF Done:  E(RM062X) =  -491.047217498     A.U. after   12 cycles
            NFock= 12  Conv=0.56D-08     -V/T= 2.0086
 SMD-CDS (non-electrostatic) energy       (kcal/mol) =       5.87
 (included in total energy above)
 D1PCM: PCM CHGder 1st derivatives, ID1Alg=3 FixD1E=F DoIter=F DoCFld=F I1PDM=0.
 Calling FoFJK, ICntrl=      2127 FMM=F ISym2X=0 I1Cent= 0 IOpClX= 0 NMat=1 NMatS=1 NMatT=0.
 ***** Axes restored to original set *****
 -------------------------------------------------------------------
 Center     Atomic                   Forces (Hartrees/Bohr)
 Number     Number              X              Y              Z
 -------------------------------------------------------------------
      1        7          -0.002731421    0.004817404    0.002479609
      2        7          -0.004101046    0.003085043    0.001250451
      3        6           0.005917804   -0.003136482   -0.000343609
      4        6           0.002971573   -0.003591430    0.000327846
      5        6          -0.005252661   -0.005007971   -0.001301769
      6        1           0.000562195    0.000099188    0.000491624
      7        1           0.000321969   -0.000550482    0.000172097
      8        6           0.032751688    0.004389170    0.003717410
      9        8          -0.009473842    0.001729605   -0.002577816
     10        8          -0.026450943    0.008327358    0.003601496
     11        1          -0.003112892    0.014382682   -0.002583351
     12        1           0.000104204    0.000043678    0.000070225
     13        8           0.004211715   -0.038244206   -0.001607544
     14        1          -0.000284794    0.018389663   -0.011790230
     15        1           0.004566448   -0.004733219    0.008093561
 -------------------------------------------------------------------
 Cartesian Forces:  Max     0.038244206 RMS     0.009962406

 GradGradGradGradGradGradGradGradGradGradGradGradGradGradGradGradGradGrad
 Berny optimization.
 FormGI is forming the generalized inverse of G from B-inverse, IUseBI=4.
 Internal  Forces:  Max     0.030953678 RMS     0.005710956
 Search for a saddle point.
 Step number   2 out of a maximum of   84
 All quantities printed in internal units (Hartrees-Bohrs-Radians)
 Swapping is turned off.
 Update second derivatives using D2CorX and points    1    2
 ITU=  0  0
     Eigenvalues ---   -0.06806  -0.01041  -0.00312   0.00226   0.00313
     Eigenvalues ---    0.00379   0.00610   0.01291   0.01640   0.02139
     Eigenvalues ---    0.02453   0.03262   0.03855   0.04646   0.05562
     Eigenvalues ---    0.07428   0.07695   0.09267   0.09610   0.10458
     Eigenvalues ---    0.11066   0.11570   0.14092   0.20608   0.22571
     Eigenvalues ---    0.24376   0.25998   0.33129   0.35918   0.38319
     Eigenvalues ---    0.38724   0.38841   0.41624   0.44190   0.48243
     Eigenvalues ---    0.53429   0.57941   0.61833   0.85469
 Eigenvectors required to have negative eigenvalues:
                          R15       R13       R14       R3        A22
   1                    0.63584  -0.60635  -0.27718   0.25544   0.13364
                          A21       A23       D32       A18       R5
   1                   -0.11635   0.10020  -0.08157  -0.07681  -0.07520
 RFO step:  Lambda0=5.559840943D-04 Lambda=-2.48841770D-02.
 Linear search not attempted -- option 19 set.
 Maximum step size (   0.300) exceeded in Quadratic search.
    -- Step size scaled by   0.347
 Iteration  1 RMS(Cart)=  0.04230352 RMS(Int)=  0.00542489
 Iteration  2 RMS(Cart)=  0.00415888 RMS(Int)=  0.00260935
 Iteration  3 RMS(Cart)=  0.00005691 RMS(Int)=  0.00260865
 Iteration  4 RMS(Cart)=  0.00000069 RMS(Int)=  0.00260865
 Variable       Old X    -DE/DX   Delta X   Delta X   Delta X     New X
                                 (Linear)    (Quad)   (Total)
    R1        2.54577   0.00007   0.00000   0.00515   0.00455   2.55032
    R2        2.50958  -0.00278   0.00000  -0.00363  -0.00349   2.50609
    R3        2.51179   0.00181   0.00000   0.15311   0.15414   2.66593
    R4        2.55224   0.00454   0.00000   0.00733   0.00724   2.55948
    R5        2.79109  -0.00455   0.00000  -0.01886  -0.02039   2.77069
    R6        2.60900  -0.00308   0.00000  -0.00558  -0.00571   2.60328
    R7        2.04006   0.00014   0.00000  -0.00023  -0.00023   2.03983
    R8        2.64972   0.00580   0.00000   0.00739   0.00741   2.65713
    R9        2.03837   0.00022   0.00000   0.00034   0.00034   2.03871
   R10        2.04234   0.00005   0.00000   0.00039   0.00039   2.04274
   R11        2.31503  -0.00514   0.00000   0.00251   0.00251   2.31754
   R12        2.36706   0.01717   0.00000   0.01059   0.00984   2.37690
   R13        2.43050  -0.01352   0.00000   0.01982   0.02015   2.45065
   R14        2.15663  -0.00240   0.00000  -0.12437  -0.12352   2.03311
   R15        2.32357  -0.03095   0.00000  -0.09971  -0.09859   2.22498
   R16        1.82718  -0.00288   0.00000   0.00130   0.00130   1.82848
    A1        1.88156  -0.00441   0.00000  -0.01322  -0.01354   1.86802
    A2        2.10235  -0.00245   0.00000  -0.00996  -0.00892   2.09342
    A3        2.29619   0.00689   0.00000   0.02355   0.02285   2.31904
    A4        1.91589   0.00464   0.00000   0.00922   0.00968   1.92557
    A5        2.14049  -0.00263   0.00000   0.00526   0.00407   2.14456
    A6        2.22549  -0.00203   0.00000  -0.01490  -0.01419   2.21130
    A7        1.88174  -0.00298   0.00000  -0.00406  -0.00427   1.87747
    A8        2.10170   0.00209   0.00000   0.00282   0.00292   2.10462
    A9        2.29962   0.00090   0.00000   0.00132   0.00140   2.30102
   A10        1.83539  -0.00051   0.00000  -0.00278  -0.00288   1.83251
   A11        2.22315  -0.00036   0.00000   0.00030   0.00035   2.22350
   A12        2.22464   0.00087   0.00000   0.00248   0.00253   2.22717
   A13        1.91015   0.00326   0.00000   0.01087   0.01103   1.92117
   A14        2.09647  -0.00152   0.00000  -0.00253  -0.00261   2.09385
   A15        2.27656  -0.00174   0.00000  -0.00834  -0.00841   2.26814
   A16        1.99097   0.00716   0.00000   0.01052   0.01127   2.00224
   A17        2.00550   0.00506   0.00000   0.01284   0.01133   2.01683
   A18        2.28671  -0.01222   0.00000  -0.02335  -0.02260   2.26411
   A19        2.23940  -0.00602   0.00000  -0.02189  -0.02097   2.21843
   A20        1.45583   0.01311   0.00000   0.03683   0.03353   1.48936
   A21        2.22216  -0.00942   0.00000  -0.16999  -0.17377   2.04839
   A22        2.21194  -0.00508   0.00000  -0.05749  -0.07477   2.13718
   A23        2.73660   0.00317   0.00000   0.01596   0.02130   2.75790
   A24        2.88661  -0.00916   0.00000  -0.04921  -0.04864   2.83798
   A25        3.27803  -0.00401   0.00000  -0.01930  -0.02100   3.25703
    D1       -0.00256  -0.00007   0.00000   0.00015   0.00099  -0.00157
    D2        3.08776  -0.00044   0.00000  -0.00856  -0.00745   3.08031
    D3       -3.06914  -0.00083   0.00000  -0.00543  -0.00492  -3.07407
    D4        0.02118  -0.00119   0.00000  -0.01414  -0.01336   0.00781
    D5        0.00772  -0.00001   0.00000  -0.00085  -0.00161   0.00611
    D6       -3.13920   0.00003   0.00000  -0.00137  -0.00177  -3.14097
    D7        3.06287   0.00021   0.00000   0.00327   0.00311   3.06598
    D8       -0.08405   0.00025   0.00000   0.00275   0.00295  -0.08110
    D9        0.16134  -0.00162   0.00000   0.01353   0.00950   0.17084
   D10        2.42074  -0.00442   0.00000  -0.15416  -0.14770   2.27305
   D11       -2.98057   0.00061   0.00000   0.02914   0.02545  -2.95513
   D12       -0.72118  -0.00219   0.00000  -0.13855  -0.13174  -0.85292
   D13       -0.00364   0.00011   0.00000   0.00063   0.00004  -0.00360
   D14       -3.12990  -0.00028   0.00000  -0.00335  -0.00351  -3.13341
   D15       -3.09081   0.00051   0.00000   0.00907   0.00816  -3.08265
   D16        0.06612   0.00011   0.00000   0.00510   0.00460   0.07073
   D17       -3.06397  -0.00042   0.00000  -0.01205  -0.01172  -3.07570
   D18        0.08194  -0.00013   0.00000  -0.01373  -0.01272   0.06922
   D19        0.01678  -0.00066   0.00000  -0.02149  -0.02074  -0.00395
   D20       -3.12049  -0.00037   0.00000  -0.02317  -0.02173   3.14096
   D21        0.00799  -0.00013   0.00000  -0.00114  -0.00103   0.00696
   D22       -3.13031  -0.00024   0.00000  -0.00180  -0.00152  -3.13183
   D23        3.13185   0.00033   0.00000   0.00346   0.00309   3.13494
   D24       -0.00645   0.00022   0.00000   0.00280   0.00260  -0.00385
   D25       -0.00976   0.00004   0.00000   0.00115   0.00157  -0.00819
   D26        3.13789  -0.00001   0.00000   0.00171   0.00171   3.13960
   D27        3.12854   0.00016   0.00000   0.00180   0.00205   3.13059
   D28       -0.00700   0.00011   0.00000   0.00236   0.00219  -0.00480
   D29       -0.24637   0.00182   0.00000   0.02404   0.02408  -0.22228
   D30        2.90045   0.00209   0.00000   0.02187   0.02278   2.92323
   D31        0.90223  -0.00022   0.00000   0.05190   0.05266   0.95489
   D32       -0.81963  -0.00111   0.00000  -0.06941  -0.06767  -0.88730
   D33       -3.13186   0.00244   0.00000   0.15775   0.15637  -2.97549
         Item               Value     Threshold  Converged?
 Maximum Force            0.030954     0.000450     NO 
 RMS     Force            0.005711     0.000300     NO 
 Maximum Displacement     0.211652     0.001800     NO 
 RMS     Displacement     0.044371     0.001200     NO 
 Predicted change in Energy=-9.229787D-03
 GradGradGradGradGradGradGradGradGradGradGradGradGradGradGradGradGradGrad

                          Input orientation:                          
 ---------------------------------------------------------------------
 Center     Atomic      Atomic             Coordinates (Angstroms)
 Number     Number       Type             X           Y           Z
 ---------------------------------------------------------------------
      1          7           0        0.167845    0.992361   -0.137923
      2          7           0        0.434306   -0.328306   -0.059343
      3          6           0        1.767921   -0.532977    0.059120
      4          6           0        2.380323    0.700996    0.051788
      5          6           0        1.329709    1.627846   -0.067629
      6          1           0        2.166061   -1.533986    0.127183
      7          1           0        3.436803    0.908572    0.120041
      8          6           0       -0.615375   -1.351483   -0.027972
      9          8           0       -0.208613   -2.499218    0.117918
     10          8           0       -1.791910   -0.925984   -0.157533
     11          1           0       -1.169400    1.439399   -0.184250
     12          1           0        1.358080    2.707587   -0.110656
     13          8           0       -2.234498    1.455680   -0.335273
     14          1           0       -2.190741    0.305891   -0.085553
     15          1           0       -2.749019    2.082417    0.192646
 ---------------------------------------------------------------------
                    Distance matrix (angstroms):
                    1          2          3          4          5
     1  N    0.000000
     2  N    1.349569   0.000000
     3  C    2.219398   1.354420   0.000000
     4  C    2.239630   2.204268   1.377599   0.000000
     5  C    1.326163   2.151359   2.208450   1.406095   0.000000
     6  H    3.231962   2.118356   1.079429   2.246494   3.276373
     7  H    3.280191   3.252236   2.206114   1.078840   2.234373
     8  C    2.473687   1.466187   2.521436   3.632250   3.558276
     9  O    3.521123   2.271041   2.788593   4.116836   4.408347
    10  O    2.742458   2.307140   3.588006   4.483125   4.034183
    11  H    1.410749   2.390032   3.546456   3.633385   2.508915
    12  H    2.087918   3.173742   3.270787   2.257825   1.080970
    13  O    2.454560   3.221995   4.486609   4.692114   3.578385
    14  H    2.457013   2.700696   4.049152   4.590163   3.760512
    15  H    3.131388   4.001080   5.221194   5.313973   4.112225
                    6          7          8          9         10
     6  H    0.000000
     7  H    2.753348   0.000000
     8  C    2.791732   4.642187   0.000000
     9  O    2.563365   4.990201   1.226392   0.000000
    10  O    4.014506   5.548160   1.257803   2.248948   0.000000
    11  H    4.479208   4.646663   2.849629   4.065356   2.446072
    12  H    4.324389   2.758762   4.514134   5.442205   4.809103
    13  O    5.340120   5.715793   3.255173   4.466633   2.428950
    14  H    4.734145   5.663457   2.287352   3.440766   1.296829
    15  H    6.102513   6.296632   4.048799   5.239335   3.176344
                   11         12         13         14         15
    11  H    0.000000
    12  H    2.828758   0.000000
    13  O    1.075875   3.811081   0.000000
    14  H    1.528960   4.285195   1.177407   0.000000
    15  H    1.746631   4.165463   0.967590   1.882848   0.000000
 Stoichiometry    C4H6N2O3
 Framework group  C1[X(C4H6N2O3)]
 Deg. of freedom    39
 Full point group                 C1      NOp   1
 Largest Abelian subgroup         C1      NOp   1
 Largest concise Abelian subgroup C1      NOp   1
                         Standard orientation:                         
 ---------------------------------------------------------------------
 Center     Atomic      Atomic             Coordinates (Angstroms)
 Number     Number       Type             X           Y           Z
 ---------------------------------------------------------------------
      1          7           0        0.392798    0.968082   -0.027072
      2          7           0        0.349726   -0.380752   -0.038434
      3          6           0        1.603697   -0.891793   -0.009310
      4          6           0        2.483993    0.167526    0.017155
      5          6           0        1.672072    1.315503    0.011226
      6          1           0        1.762083   -1.959476   -0.020840
      7          1           0        3.561779    0.123514    0.035494
      8          6           0       -0.905759   -1.137228   -0.003700
      9          8           0       -0.769539   -2.354683    0.053597
     10          8           0       -1.956468   -0.446781   -0.040600
     11          1           0       -0.805496    1.710442    0.029533
     12          1           0        1.947515    2.360666    0.027364
     13          8           0       -1.843488    1.979476   -0.058225
     14          1           0       -2.056023    0.835761    0.123528
     15          1           0       -2.175577    2.669637    0.533066
 ---------------------------------------------------------------------
 Rotational constants (GHZ):           2.1441794           1.6419951           0.9314230
 Standard basis: 6-31+G(d,p) (6D, 7F)
 There are   201 symmetry adapted cartesian basis functions of A   symmetry.
 There are   201 symmetry adapted basis functions of A   symmetry.
   201 basis functions,   330 primitive gaussians,   201 cartesian basis functions
    34 alpha electrons       34 beta electrons
       nuclear repulsion energy       460.2363361996 Hartrees.
 NAtoms=   15 NActive=   15 NUniq=   15 SFac= 1.00D+00 NAtFMM=   60 NAOKFM=F Big=F
 Integral buffers will be    131072 words long.
 Raffenetti 2 integral format.
 Two-electron integral symmetry is turned on.
 ------------------------------------------------------------------------------
 Polarizable Continuum Model (PCM)
 =================================
 Model                : PCM.
 Atomic radii         : SMD-Coulomb.
 Polarization charges : Total charges.
 Charge compensation  : None.
 Solution method      : Matrix inversion.
 Cavity type          : VdW (van der Waals Surface) (Alpha=1.000).
 Cavity algorithm     : GePol (No added spheres)
                        Default sphere list used, NSphG=   15.
                        Lebedev-Laikov grids with approx.  5.0 points / Ang**2.
                        Smoothing algorithm: York/Karplus (Gamma=1.0000).
                        Polarization charges: spherical gaussians, with
                                              point-specific exponents (IZeta= 3).
                        Self-potential: point-specific (ISelfS= 7).
                        Self-field    : sphere-specific E.n sum rule (ISelfD= 2).
 1st derivatives      : Analytical E(r).r(x)/FMM algorithm (CHGder, D1EAlg=3).
                        Cavity 1st derivative terms included.
 Solvent              : Water, Eps=  78.355300 Eps(inf)=   1.777849
 ------------------------------------------------------------------------------
 Spheres list:
 ISph  on   Nord     Re0    Alpha      Xe            Ye            Ze
    1   N      1    1.8900  1.000      0.392798      0.968082     -0.027072
    2   N      2    1.8900  1.000      0.349726     -0.380752     -0.038434
    3   C      3    1.8500  1.000      1.603697     -0.891793     -0.009310
    4   C      4    1.8500  1.000      2.483993      0.167526      0.017155
    5   C      5    1.8500  1.000      1.672072      1.315503      0.011226
    6   H      6    1.2000  1.000      1.762083     -1.959476     -0.020840
    7   H      7    1.2000  1.000      3.561779      0.123514      0.035494
    8   C      8    1.8500  1.000     -0.905759     -1.137228     -0.003700
    9   O      9    1.5200  1.000     -0.769539     -2.354683      0.053597
   10   O     10    1.5200  1.000     -1.956468     -0.446781     -0.040600
   11   H     11    1.2000  1.000     -0.805496      1.710442      0.029533
   12   H     12    1.2000  1.000      1.947515      2.360666      0.027364
   13   O     13    1.5200  1.000     -1.843488      1.979476     -0.058225
   14   H     14    1.2000  1.000     -2.056023      0.835761      0.123528
   15   H     15    1.2000  1.000     -2.175577      2.669637      0.533066
 ------------------------------------------------------------------------------
 ------------------------------------------------------------------------------
 Atomic radii for non-electrostatic terms: SMD-CDS.
 ------------------------------------------------------------------------------
 Nuclear repulsion after PCM non-electrostatic terms =      460.2456093015 Hartrees.
 One-electron integrals computed using PRISM.
 NBasis=   201 RedAO= T EigKep=  3.39D-05  NBF=   201
 NBsUse=   201 1.00D-06 EigRej= -1.00D+00 NBFU=   201
 Initial guess from the checkpoint file:  "/scratch/gongke2021/bizuo-TS/Gau-5964.chk"
 B after Tr=    -0.000000    0.000000    0.000000
         Rot=    0.999989   -0.000216   -0.000239   -0.004663 Ang=  -0.54 deg.
 ExpMin= 4.38D-02 ExpMax= 5.48D+03 ExpMxC= 8.25D+02 IAcc=2 IRadAn=         4 AccDes= 0.00D+00
 Harris functional with IExCor= 1009 and IRadAn=       4 diagonalized for initial guess.
 HarFok:  IExCor= 1009 AccDes= 0.00D+00 IRadAn=         4 IDoV= 1 UseB2=F ITyADJ=14
 ICtDFT=  3500011 ScaDFX=  1.000000  1.000000  1.000000  1.000000
 FoFCou: FMM=F IPFlag=           0 FMFlag=      100000 FMFlg1=           0
         NFxFlg=           0 DoJE=T BraDBF=F KetDBF=T FulRan=T
         wScrn=  0.000000 ICntrl=       500 IOpCl=  0 I1Cent=   200000004 NGrid=           0
         NMat0=    1 NMatS0=      1 NMatT0=    0 NMatD0=    1 NMtDS0=    0 NMtDT0=    0
 Petite list used in FoFCou.
 Requested convergence on RMS density matrix=1.00D-08 within 128 cycles.
 Requested convergence on MAX density matrix=1.00D-06.
 Requested convergence on             energy=1.00D-06.
 No special actions if energy rises.
 Inv3:  Mode=1 IEnd=     4078668.
 Iteration    1 A*A^-1 deviation from unit magnitude is 3.11D-15 for   1151.
 Iteration    1 A*A^-1 deviation from orthogonality  is 1.48D-15 for   1063    985.
 Iteration    1 A^-1*A deviation from unit magnitude is 2.89D-15 for   1151.
 Iteration    1 A^-1*A deviation from orthogonality  is 1.45D-15 for    316     46.
 Error on total polarization charges =  0.04629
 SCF Done:  E(RM062X) =  -491.055279091     A.U. after   12 cycles
            NFock= 12  Conv=0.53D-08     -V/T= 2.0084
 SMD-CDS (non-electrostatic) energy       (kcal/mol) =       5.82
 (included in total energy above)
 D1PCM: PCM CHGder 1st derivatives, ID1Alg=3 FixD1E=F DoIter=F DoCFld=F I1PDM=0.
 Calling FoFJK, ICntrl=      2127 FMM=F ISym2X=0 I1Cent= 0 IOpClX= 0 NMat=1 NMatS=1 NMatT=0.
 ***** Axes restored to original set *****
 -------------------------------------------------------------------
 Center     Atomic                   Forces (Hartrees/Bohr)
 Number     Number              X              Y              Z
 -------------------------------------------------------------------
      1        7           0.003381706    0.001947341    0.002102065
      2        7          -0.002558507    0.001568602    0.001370710
      3        6           0.003894020   -0.002230451   -0.000231115
      4        6           0.002080977   -0.002033099    0.000201468
      5        6          -0.003358359   -0.003294746   -0.001257597
      6        1           0.000326277    0.000063047    0.000419049
      7        1           0.000199493   -0.000347195    0.000137919
      8        6           0.022476606    0.003048848    0.002609705
      9        8          -0.006280979    0.000784822   -0.002013761
     10        8          -0.017967707    0.004542706    0.003683521
     11        1           0.000382801    0.012242070   -0.002676924
     12        1           0.000149355    0.000063380    0.000047716
     13        8          -0.001803225   -0.023516512   -0.000364465
     14        1          -0.003120613    0.011546083   -0.009920521
     15        1           0.002198156   -0.004384896    0.005892231
 -------------------------------------------------------------------
 Cartesian Forces:  Max     0.023516512 RMS     0.006699490

 GradGradGradGradGradGradGradGradGradGradGradGradGradGradGradGradGradGrad
 Berny optimization.
 FormGI is forming the generalized inverse of G from B-inverse, IUseBI=4.
 Internal  Forces:  Max     0.019535490 RMS     0.003993766
 Search for a saddle point.
 Step number   3 out of a maximum of   84
 All quantities printed in internal units (Hartrees-Bohrs-Radians)
 Swapping is turned off.
 Update second derivatives using D2CorX and points    2    3
 ITU=  0  0  0
     Eigenvalues ---   -0.06776  -0.00689   0.00221   0.00295   0.00375
     Eigenvalues ---    0.00593   0.00944   0.01291   0.01639   0.02126
     Eigenvalues ---    0.02427   0.03263   0.03852   0.04649   0.05560
     Eigenvalues ---    0.07420   0.07666   0.09250   0.09566   0.10456
     Eigenvalues ---    0.11065   0.11577   0.14155   0.21014   0.22572
     Eigenvalues ---    0.24689   0.26479   0.33145   0.35912   0.38319
     Eigenvalues ---    0.38724   0.38841   0.41622   0.44191   0.48241
     Eigenvalues ---    0.53445   0.57942   0.61849   0.85490
 Eigenvectors required to have negative eigenvalues:
                          R15       R13       R14       R3        A22
   1                    0.64626  -0.61228  -0.25937   0.24229   0.12237
                          A23       A21       D32       R5        A18
   1                    0.10636  -0.10005  -0.07831  -0.07666  -0.07585
 RFO step:  Lambda0=4.273750039D-04 Lambda=-1.23687284D-02.
 Linear search not attempted -- option 19 set.
 Maximum step size (   0.300) exceeded in Quadratic search.
    -- Step size scaled by   0.625
 Iteration  1 RMS(Cart)=  0.05853373 RMS(Int)=  0.01845527
 Iteration  2 RMS(Cart)=  0.01681629 RMS(Int)=  0.00544936
 Iteration  3 RMS(Cart)=  0.00069430 RMS(Int)=  0.00538870
 Iteration  4 RMS(Cart)=  0.00001001 RMS(Int)=  0.00538870
 Iteration  5 RMS(Cart)=  0.00000026 RMS(Int)=  0.00538870
 Variable       Old X    -DE/DX   Delta X   Delta X   Delta X     New X
                                 (Linear)    (Quad)   (Total)
    R1        2.55032   0.00064   0.00000   0.00591   0.00470   2.55501
    R2        2.50609  -0.00170   0.00000  -0.00316  -0.00297   2.50311
    R3        2.66593   0.00619   0.00000   0.06377   0.06532   2.73125
    R4        2.55948   0.00315   0.00000   0.00702   0.00692   2.56641
    R5        2.77069  -0.00201   0.00000  -0.02721  -0.02972   2.74098
[...]
 ! D27   D(7,4,5,1)            179.9116         -DE/DX =    0.0                 !
 ! D28   D(7,4,5,12)            -0.0879         -DE/DX =    0.0                 !
 ! D29   D(2,8,10,14)           -1.4175         -DE/DX =    0.0                 !
 ! D30   D(9,8,10,14)          178.6761         -DE/DX =    0.0                 !
 ! D31   D(8,10,14,13)           9.4384         -DE/DX =    0.0                 !
 ! D32   D(11,13,14,10)        -10.5174         -DE/DX =    0.0                 !
 ! D33   D(15,13,14,10)       -123.1047         -DE/DX =    0.0                 !
 --------------------------------------------------------------------------------
 GradGradGradGradGradGradGradGradGradGradGradGradGradGradGradGradGradGrad


 ----------------------------------------------------------------------

 Electric dipole moment (input orientation):
 (Debye = 10**-18 statcoulomb cm , SI units = C m)
                  (au)            (Debye)         (10**-30 SI)
   Tot        0.398864D+01      0.101381D+02      0.338171D+02
   x          0.774639D+00      0.196894D+01      0.656766D+01
   y          0.386987D+01      0.983622D+01      0.328101D+02
   z          0.577335D+00      0.146744D+01      0.489485D+01

 Dipole polarizability, Alpha (input orientation).
 (esu units = cm**3 , SI units = C**2 m**2 J**-1)
 Alpha(0;0):
               (au)            (10**-24 esu)      (10**-40 SI)
   iso        0.100605D+03      0.149081D+02      0.165875D+02
   aniso      0.624894D+02      0.925998D+01      0.103031D+02
   xx         0.120729D+03      0.178901D+02      0.199055D+02
   yx         0.459540D+00      0.680969D-01      0.757680D-01
   yy         0.121680D+03      0.180312D+02      0.200624D+02
   zx         0.360355D+01      0.533992D+00      0.594146D+00
   zy        -0.389870D+01     -0.577728D+00     -0.642809D+00
   zz         0.594060D+02      0.880306D+01      0.979472D+01

 ----------------------------------------------------------------------

 Dipole orientation:
     7          0.04636638          0.52034311          1.89668792
     7          0.87611842         -0.21203755         -0.40818611
     6          3.34550913         -0.90000913         -0.29758742
     6          4.13226810         -0.60307177          2.16298889
     6          1.98785098          0.29218657          3.46054581
     1          4.32240190         -1.53504652         -1.97128660
     1          5.98688756         -0.97415484          2.92433631
     6         -0.69643941         -0.23074858         -2.68473813
     8          0.38603318         -0.97247146         -4.60650536
     8         -2.94708889          0.50343046         -2.43946025
     1         -2.49567835          1.31552294          2.22151070
     1          1.76896129          0.77503282          5.43375732
     8         -4.43892686          1.87970657          1.74957404
     1         -4.20889118          1.32913479         -0.13014885
     1         -5.64940887          0.77209876          2.57310709

 Electric dipole moment (dipole orientation):
 (Debye = 10**-18 statcoulomb cm , SI units = C m)
                  (au)            (Debye)         (10**-30 SI)
   Tot        0.398864D+01      0.101381D+02      0.338171D+02
   x          0.000000D+00      0.000000D+00      0.000000D+00
   y          0.000000D+00      0.000000D+00      0.000000D+00
   z          0.398864D+01      0.101381D+02      0.338171D+02

 Dipole polarizability, Alpha (dipole orientation).
 (esu units = cm**3 , SI units = C**2 m**2 J**-1)
 Alpha(0;0):
               (au)            (10**-24 esu)      (10**-40 SI)
   iso        0.100605D+03      0.149081D+02      0.165875D+02
   aniso      0.624894D+02      0.925998D+01      0.103031D+02
   xx         0.116692D+03      0.172920D+02      0.192400D+02
   yx        -0.152453D+02     -0.225911D+01     -0.251360D+01
   yy         0.655022D+02      0.970642D+01      0.107998D+02
   zx         0.318431D+01      0.471866D+00      0.525022D+00
   zy         0.115232D+02      0.170756D+01      0.189992D+01
   zz         0.119621D+03      0.177259D+02      0.197228D+02

 ----------------------------------------------------------------------
 1\1\GINC-NODE3\Freq\RM062X\6-31+G(d,p)\C4H6N2O3\GONGKE2021\05-Nov-2023
 \0\\#N Geom=AllCheck Guess=TCheck SCRF=Check GenChk RM062X/6-31+G(d,p)
  Freq\\Title Card Required\\0,1\N,0.1733303707,1.0186863192,-0.1266415
 209\N,0.4248652404,-0.3058222768,-0.0124416457\C,1.7598463265,-0.52882
 34579,0.0954630639\C,2.389477828,0.6938758216,0.0506220023\C,1.3474628
 987,1.6310364208,-0.0892475007\H,2.1430674302,-1.5329378397,0.19290824
 28\H,3.449131594,0.8883281771,0.1088558456\C,-0.6122141431,-1.33943168
 73,-0.0155936857\O,-0.1911652363,-2.4901372335,0.1067743145\O,-1.80270
 69243,-0.9484248407,-0.1424441418\H,-1.1634198452,1.4816507362,-0.2487
 708577\H,1.3961813705,2.7085904176,-0.1635150962\O,-2.2555052279,1.461
 6649443,-0.3748700926\H,-2.2830126405,0.4247706341,-0.2598155775\H,-2.
 6938456818,1.885770765,0.3812801397\\Version=ES64L-G16RevA.03\State=1-
 A\HF=-491.0624754\RMSD=1.094e-09\RMSF=2.761e-05\ZeroPoint=0.1081929\Th
 ermal=0.1157692\Dipole=0.774639,3.8698677,0.5773345\DipoleDeriv=-1.536
 1323,0.5391899,-0.122228,0.7272648,0.1058657,0.0217858,-0.1268073,0.00
 99302,-0.2566869,-1.2983869,-1.2469662,0.0011273,-1.138771,-1.1234273,
 -0.0007672,-0.0044487,-0.0082279,-0.055169,0.5824354,0.7693352,-0.0120
 981,0.2092609,0.3041531,-0.0108468,0.0275934,0.0287767,-0.0389463,-0.1
 285081,0.0671944,0.008184,-0.1142154,-0.7950108,0.0261552,0.0187557,0.
 0402197,-0.3092282,0.3675281,-0.6521589,0.0736793,-0.0974223,0.2779495
 ,-0.0305914,0.0330033,-0.06835,-0.0155791,0.1631844,-0.0022333,-0.0053
 54,0.0040389,0.1605254,0.0062563,-0.0064087,0.0054622,0.2426456,0.0540
 815,-0.014198,-0.0121349,-0.0101829,0.1580082,0.0054586,-0.0124588,0.0
 052613,0.2448496,3.5919209,0.0097348,0.2321999,0.2478004,3.5691185,-0.
 213618,0.2249966,-0.2385964,0.6182598,-1.1311825,0.3266273,-0.0628993,
 0.2240302,-2.3491837,0.149591,-0.05794,0.1620559,-0.6488267,-2.4028797
 ,0.6321712,-0.1781554,0.5154714,-1.5979577,0.1017971,-0.1806972,0.1091
 468,-0.6513531,2.2993223,-0.470248,0.1339396,-0.3806538,0.4656953,-0.0
 562561,0.1391129,-0.0671007,0.3865933,0.1364589,0.0272419,-0.0067656,0
 .0006397,0.0647728,0.0104652,-0.0043003,0.0124592,0.2087086,-1.8084951
 ,0.3556248,-0.0856822,0.3956005,-1.3723595,0.05335,-0.0901682,0.055481
 2,-0.5771586,0.637232,-0.2895467,0.0630782,-0.5143655,1.660765,-0.0869
 053,0.0869522,-0.0768875,0.4207716,0.473421,-0.0517685,-0.0268907,-0.0
 684961,0.4710855,0.0241254,-0.047185,0.0303692,0.4311194\Polar=120.728
 5985,0.4595404,121.6804483,3.6035542,-3.8986999,59.4059663\Quadrupole=
 7.6187639,-5.196907,-2.4218569,-7.0738687,-3.0363353,2.6804068\PG=C01 
 [X(C4H6N2O3)]\NImag=1\\0.71041096,0.04505235,0.54073179,0.03843798,-0.
 02750358,0.11560768,-0.12549085,0.10052983,-0.01184881,0.75437331,0.01
 198273,-0.26375433,0.01537525,0.02086375,0.69681723,-0.00529246,0.0213
 2131,-0.06465367,0.04468833,-0.04098617,0.11431646,-0.07224051,0.03772
 064,-0.00854568,-0.31303058,0.06403030,-0.02201031,0.63454317,0.025209
 08,-0.06496778,0.00742711,0.04646947,-0.12046893,0.00731270,-0.0649250
 3,0.91417072,-0.00783061,0.00844009,0.01318898,-0.02038786,0.00847422,
 -0.06462179,0.03866371,-0.05987384,0.14617134,-0.08279755,-0.01745039,
 -0.00572973,-0.05917683,-0.01371722,-0.00395137,-0.17881316,-0.1301812
 5,0.00180671,0.88840138,0.05538199,0.02702173,0.00314222,-0.09110645,-
 0.02417228,-0.00365321,-0.09341284,-0.34285580,0.01340588,0.09294658,0
 .61689687,-0.01100327,-0.00175775,0.01857400,0.00168407,0.00166951,0.0
 1122361,-0.00082841,0.01091448,-0.06835937,0.04594388,-0.02944172,0.12
 659220,-0.35721118,-0.13875923,-0.00995458,-0.05807806,-0.06321949,-0.
 00022905,0.06049182,0.05439264,-0.00045397,-0.22597203,0.07810644,-0.0
 1657991,0.65015452,-0.11447728,-0.17760135,-0.00024337,-0.03766438,-0.
 09764637,0.00528045,-0.00780159,-0.05939326,0.00444283,0.11756391,-0.2
 1291480,0.01859864,0.05021055,0.90451836,-0.01172908,-0.00202124,-0.07
 198541,-0.00209941,0.00370664,0.01206620,0.00404222,0.00879106,0.00955
 019,-0.01941706,0.01588999,-0.07006143,0.03125935,-0.05099898,0.153203
 82,-0.00589087,0.00024667,-0.00076243,-0.00583573,0.03103162,-0.002551
 70,-0.09532870,0.09648231,-0.01103366,0.01312464,-0.01188118,0.0014288
 7,-0.00228260,-0.00449019,-0.00020124,0.09340035,-0.00249522,0.0019514
 3,0.00005137,0.00035922,0.00229849,-0.00018822,0.10766605,-0.33487115,
 0.02864167,0.00976650,-0.00610121,0.00143252,-0.00103265,-0.00283049,0
 .00052126,-0.11288870,0.34058838,-0.00061499,0.00025720,0.00502682,-0.
 00036818,0.00188679,-0.00098845,-0.01183903,0.02784337,-0.03736760,-0.
 00011084,-0.00002123,0.00456498,-0.00043731,0.00029483,0.00541818,0.01
 277492,-0.03016381,0.02725052,-0.00216959,0.00192567,-0.00070191,0.000
 42633,-0.00035325,-0.00038329,-0.00201419,0.00268484,-0.00027512,-0.36
 281578,-0.05674513,-0.01871001,-0.00768067,-0.00746564,0.00015868,-0.0
 0008454,-0.00013244,0.00021878,0.37350446,0.00563536,-0.00316422,0.001
 05800,-0.00299564,-0.00597345,0.00068414,-0.02433726,0.00423320,-0.002
 02645,-0.05582920,-0.06586332,-0.00113331,0.01848147,0.01127635,0.0002
 9309,0.00107007,0.00043600,-0.00018618,0.06016752,0.05733575,-0.000959
 31,0.00081740,0.00594638,-0.00021408,0.00085217,0.00631572,0.00167462,
 -0.00017869,-0.00072316,-0.01874575,-0.00121176,-0.03011586,-0.0017532
 3,-0.00147284,-0.00209415,0.00013252,-0.00026404,-0.00312453,0.0195954
 6,0.00162166,0.02429138,0.01287056,-0.01626715,0.00333538,-0.11885283,
 -0.01223573,-0.00419028,-0.04268461,-0.02247611,-0.00090845,-0.0022496
 6,0.02067919,-0.00186466,0.01664319,0.01302294,-0.00001036,-0.00029437
 ,0.00095304,0.00005016,0.00047596,0.00006408,-0.00010896,0.69326102,-0
 .02331816,-0.03888763,0.00021078,0.00669530,-0.10130624,0.00416445,-0.
 03504951,0.00948633,-0.00366469,0.00810948,0.02094136,-0.00078230,0.02
 281714,0.00139997,0.00163521,0.00109191,-0.00210707,0.00009782,0.00051
 778,0.00176269,0.00005517,-0.24553700,0.75122159,0.00356588,0.00056529
 ,-0.01404658,-0.00571894,0.00255653,-0.05034519,0.00008802,-0.00269631
 ,-0.00731858,-0.00089516,0.00017839,0.00287423,-0.00061765,0.00105340,
 0.00242813,0.00001909,0.00009349,-0.00193045,-0.00013978,0.00003488,0.
 00200755,0.05652041,-0.05980462,0.23142732,-0.00266620,-0.00131809,-0.
 00050231,0.01250022,-0.02790067,0.00183032,-0.00345425,-0.00126408,-0.
 00016856,0.00149193,-0.00061446,0.00012128,0.00027300,-0.00322932,0.00
 026715,0.00083302,-0.00279008,0.00025794,-0.00005868,-0.00000682,0.000
 01326,-0.13923022,0.15477634,-0.01624929,0.18576150,-0.01000206,0.0065
 4850,-0.00079274,-0.01960383,-0.09179508,0.00670047,0.01488191,0.00054
 987,0.00107270,-0.00075064,-0.00822491,0.00056117,-0.00589100,-0.00628
 711,0.00002184,-0.00010053,0.00020515,0.00000220,-0.00029111,-0.000241
 36,-0.00002144,0.14088142,-0.51060460,0.04397524,-0.19927677,0.6531821
 8,0.00022484,-0.00018401,0.00549327,0.00118226,0.00605862,0.01580905,-
 0.00141762,-0.00010449,0.00047115,0.00014137,0.00058626,0.00023138,0.0
 0045632,0.00022122,-0.00029140,0.00005939,-0.00019447,0.00016394,0.000
 03044,0.00000302,-0.00018105,-0.01510979,0.04520024,-0.08679483,0.0274
 6532,-0.06364715,0.03983128,0.00476912,0.01040941,-0.00058240,-0.08528
 601,-0.01266740,-0.00702824,0.01397985,-0.00737723,0.00111354,-0.00399
 487,-0.00887361,0.00041935,-0.00890567,-0.00229574,-0.00046164,0.00049
 690,-0.00025454,0.00004682,-0.00020265,-0.00099015,0.00012695,-0.41255
 151,0.09500568,-0.03485385,-0.05766907,0.08766124,-0.01376014,0.552535
 80,-0.00171561,0.00241515,-0.00026664,-0.02772573,0.00988189,-0.001596
 02,-0.00013375,-0.00298121,0.00043318,-0.00273796,0.00052086,-0.000257
 04,0.00041436,0.00166155,-0.00013207,-0.00041818,0.00046216,-0.0000631
 2,-0.00013354,-0.00019871,-0.00003234,0.10209896,-0.12303110,0.0116151
 0,0.08850683,-0.05235154,0.01327449,-0.15847270,0.22094164,0.00036254,
 0.00069447,-0.00004987,-0.00596951,-0.00043665,0.01551689,0.00079500,-
 0.00012921,0.00397290,-0.00010843,-0.00071739,-0.00022967,-0.00070323,
 -0.00026796,0.00016198,0.00006849,-0.00005404,0.00002469,0.00004375,-0
 .00011792,-0.00071732,-0.03600079,0.01106562,-0.07774376,-0.01347586,0
 .01311337,0.02427741,0.05491561,-0.02615316,0.04062494,0.00670127,-0.0
 0991147,0.00275828,0.00882063,0.00899451,0.00005727,0.01020471,-0.0075
 3227,0.00120348,0.00824889,-0.00681556,0.00093582,-0.01033904,-0.01204
 388,0.00022399,0.00167794,0.00040033,0.00002647,0.00105430,-0.00117370
 ,0.00011658,0.01732576,0.01048133,0.00068459,-0.00396755,-0.00363837,-
 0.00010459,-0.01314228,0.01104880,-0.00125325,0.08350350,-0.00975646,-
 0.03382573,-0.00025687,0.01207490,-0.00547256,0.00100210,-0.00307250,-
 0.00128099,-0.00008937,-0.00388270,0.00103253,-0.00018315,-0.00284817,
 0.00814868,-0.00084267,0.00015428,0.00004481,0.00008558,-0.00041287,0.
 00069039,-0.00003619,0.00080221,-0.00529140,0.00044791,-0.00040267,0.0
 0224951,-0.00018748,0.00161382,0.00185807,-0.00012636,0.04795530,0.085
 57300,0.00217928,-0.00021328,-0.02082405,0.00002434,0.00089755,-0.0027
 1202,0.00080583,-0.00035640,0.00075794,0.00067214,-0.00039647,0.001921
 03,-0.00048201,-0.00145620,-0.00053069,0.00003620,0.00009905,0.0009359
 2,0.00005633,-0.00007573,0.00056616,0.00080495,0.00109636,-0.00017786,
 -0.00014459,-0.00047603,0.00003265,-0.00066180,-0.00000210,-0.00042091
 ,0.00292004,0.01195491,0.06146241,0.00329009,-0.03148150,0.00280132,-0
 .00589379,-0.00392146,-0.00067371,-0.00490486,0.00376734,-0.00094376,0
 .00984522,0.01863092,-0.00089079,-0.06033338,-0.00235242,-0.00149548,0
 .00116804,0.00062708,0.00001485,0.00021915,-0.00105640,0.00023280,0.00
 201571,0.00014473,-0.00004688,-0.00025803,-0.00113698,0.00013332,-0.00
 032439,0.00004321,-0.00000578,0.00023185,0.00011785,0.00010225,0.05491
 186,0.00050637,-0.00857444,0.00036634,-0.00140558,0.00208876,0.0002913
 8,0.00158937,-0.00118260,0.00053985,-0.00469347,-0.00483403,0.00026197
 ,-0.01238004,-0.36727551,0.02286912,-0.00034662,-0.00004830,0.00000126
 ,0.00011474,0.00005964,-0.00014454,0.00051895,0.00028913,0.00021405,-0
 .00020355,-0.00028674,-0.00005986,-0.00019651,-0.00003142,-0.00003556,
 0.00013583,-0.00009452,-0.00009077,0.01669725,0.37993202,0.00050382,-0
 .00190506,-0.00393309,-0.00082691,0.00014438,0.00752755,-0.00080659,0.
 00069038,0.00470697,0.00078314,0.00189750,0.00323253,-0.00077045,0.023
 56751,-0.03806696,0.00008862,0.00006671,0.00028380,0.00014675,-0.00022
 770,-0.00203336,-0.00009278,0.00018559,0.00263787,0.00006396,-0.000132
 64,-0.00092188,0.00001066,-0.00000816,-0.00028887,0.00008766,-0.000091
 96,-0.00134652,0.00078696,-0.02421791,0.02790967,-0.08326739,0.0191841
 2,-0.00553659,-0.00554773,-0.00542550,0.00001753,-0.00582877,0.0042221
 8,-0.00072909,-0.00605904,0.00309170,-0.00076529,0.00282709,0.01123482
 ,-0.00055193,-0.00095458,-0.00027332,-0.00008480,-0.00072429,0.0009323
 8,-0.00014870,-0.00369274,-0.00782600,-0.00005940,0.00036312,0.0039470
 4,-0.00012195,0.00748773,0.01256933,-0.00180468,-0.09749973,-0.0221326
 3,-0.03257272,-0.00004575,-0.00032974,0.00009958,0.36923402,0.01129467
 ,0.00992198,0.00217731,0.00234440,0.00169943,0.00021091,-0.00113367,0.
 00108662,-0.00018458,0.00098073,0.00122220,-0.00012218,0.00223355,-0.0
 0109836,0.00026228,-0.00019148,0.00005389,-0.00009340,0.00010544,-0.00
 004061,-0.00002214,-0.03407796,-0.00006059,-0.00305148,0.01197721,-0.0
 1063131,0.00204899,0.04866179,-0.07251813,0.00699049,-0.00662840,-0.04
 751564,-0.01731968,0.00007031,-0.00002204,0.00007446,-0.08801590,0.456
 52392,-0.00330287,0.00120856,0.01178812,-0.00065103,-0.00008317,0.0005
 8656,-0.00013980,0.00014017,-0.00023836,-0.00018930,0.00003887,-0.0005
 4359,-0.00003182,0.00054912,0.00034873,-0.00001184,-0.00003860,-0.0002
 3981,-0.00000420,0.00001787,-0.00018216,0.00072744,0.00008058,0.001611
 71,-0.00019982,0.00033001,-0.00087131,-0.00213787,0.00197502,0.0085142
 1,-0.00987301,-0.01220092,-0.04767062,-0.00003138,0.00001920,0.0003302
 0,-0.16192739,0.13958776,0.39762130,-0.00271700,0.00071740,-0.00075048
 ,0.00084476,0.00244066,-0.00009767,-0.00072623,0.00046717,-0.00007534,
 0.00093106,0.00055243,0.00000061,0.00053005,-0.00060777,0.00013138,-0.
 00001261,0.00007586,-0.00000226,0.00009199,-0.00000552,0.00000393,-0.0
 2136349,0.01193590,-0.00218517,0.00551068,-0.00617281,0.00075778,0.000
 64327,-0.02076807,0.00249381,-0.00819296,-0.03307402,0.00213374,0.0000
 7096,0.00001470,0.00000306,-0.04862936,-0.02830624,0.01588111,0.072197
 50,0.00947811,0.00117159,0.00016521,-0.00889506,-0.00183722,-0.0005712
 6,0.00435305,-0.00171667,0.00042473,0.00012808,-0.00293155,0.00027558,
 -0.00291006,-0.00235622,-0.00003529,0.00028957,-0.00007201,0.00003329,
 0.00005532,-0.00034970,0.00003725,0.05260822,-0.00337135,0.00452964,-0
 .01862135,0.01775863,-0.00285305,-0.05311214,0.01645652,-0.00569770,-0
 .03666424,-0.00641216,0.00066003,-0.00014461,-0.00000397,-0.00002993,-
 0.00666556,-0.21414260,0.01774619,0.05688731,0.20422818,-0.00060992,-0
 .00004107,0.00057091,0.00056949,0.00041186,-0.00009881,-0.00026350,0.0
 0008543,-0.00016310,0.00013380,0.00019695,0.00009817,0.00020587,-0.000
 04631,-0.00013907,-0.00000749,0.00001245,-0.00002352,0.00001176,0.0000
 1074,0.00004518,-0.00458582,0.00119638,-0.00482114,0.00127344,-0.00144
 258,0.00282859,0.00437427,-0.00288875,-0.01297039,-0.00172064,-0.00264
 369,0.00448508,0.00001667,0.00000166,-0.00002517,0.02108534,0.04742883
 ,-0.05001204,-0.01503618,-0.01363415,0.05679833,-0.00359088,-0.0005982
 8,-0.00241806,0.00022716,0.00009715,-0.00018537,-0.00019367,0.00006095
 ,0.00001897,-0.00016418,0.00005998,0.00010847,-0.00011703,0.00039599,-
 0.00011656,-0.00001687,0.00001888,0.00006746,-0.00002180,0.00004381,0.
 00003391,-0.00167277,0.00015509,-0.00011189,0.00057054,-0.00050752,0.0
 0006305,0.00216378,-0.00257595,0.00064232,-0.00462728,0.01286367,0.024
 12601,0.00000732,-0.00002170,-0.00007749,-0.12766256,0.08068556,0.1618
 9178,0.00082137,0.00321336,-0.00544708,0.13427688,-0.00277586,0.001013
 29,-0.00091039,0.00005981,-0.00035936,0.00002697,-0.00037517,0.0001916
 6,-0.00003623,-0.00025245,0.00026234,-0.00003642,0.00038449,0.00039855
 ,0.00003975,-0.00004955,-0.00001007,0.00002541,-0.00003734,0.00003737,
 0.00000033,-0.00103507,-0.00044108,0.00028849,0.00036748,-0.00007121,-
 0.00016231,0.00088809,-0.00308575,0.00187199,0.00539178,0.00029598,0.0
 0567875,-0.00000531,-0.00001599,-0.00001318,0.07548711,-0.12447876,-0.
 14937064,0.01584300,-0.00642150,-0.02864774,-0.09389098,0.13268452,-0.
 00393183,0.00032167,-0.00070348,-0.00006377,-0.00052753,0.00005788,-0.
 00021847,0.00013424,-0.00002751,-0.00033339,0.00010574,-0.00000221,0.0
 0009166,0.00047766,-0.00000811,-0.00003974,-0.00001535,0.00000552,-0.0
 0004765,0.00004390,-0.00000077,0.00143353,-0.00073658,0.00019159,-0.00
 055226,0.00073558,-0.00007823,-0.00152127,0.00410163,-0.00067222,0.003
 93731,0.00316814,0.00352149,-0.00000038,-0.00001618,-0.00001273,0.1831
 0009,-0.17798757,-0.32104295,-0.00325832,-0.00105055,0.00342700,-0.178
 59551,0.17124522,0.31534473\\-0.00000418,0.00001290,0.00001076,-0.0000
 0172,-0.00000628,0.00000456,-0.00000131,-0.00000724,-0.00002512,0.0000
 0367,-0.00000922,-0.00001541,0.00000601,-0.00000423,-0.00000662,-0.000
 00592,-0.00001099,-0.00003300,0.00000331,-0.00001444,-0.00002000,0.000
 00366,-0.00000108,-0.00001449,-0.00001059,0.00000218,-0.00002744,-0.00
 000051,-0.00002449,-0.00000959,-0.00003895,-0.00001236,0.00001255,0.00
 000827,-0.00000317,0.00001728,0.00006754,0.00011844,0.00002808,-0.0000
 3658,-0.00005363,0.00004440,0.00000729,0.00001360,0.00003403\\\@


 BLESSED ARE THOSE WHO NOUGHT EXPECT,
 FOR THEY SHALL NOT BE DISAPPOINTED..  WALCOT - ODE TO PITT
 Job cpu time:       0 days  0 hours 42 minutes 40.2 seconds.
 Elapsed time:       0 days  0 hours  2 minutes  8.8 seconds.
 File lengths (MBytes):  RWF=     97 Int=      0 D2E=      0 Chk=     11 Scr=      1
 Normal termination of Gaussian 16 at Sun Nov  5 10:19:45 2023.
