 Entering Gaussian System, Link 0=g16
 Input=bizuo-TS.gjf
 Output=bizuo-TS.log
 Initial command:
 /home/Tinker/g16/l1.exe "/home/Tinker/g16/scratch/Gau-1650533.inp" -scrdir="/home/Tinker/g16/scratch/"
 Entering Link 1 = /home/Tinker/g16/l1.exe PID=   1650534.
  
 Copyright (c) 1988-2019, Gaussian, Inc.  All Rights Reserved.
  
 This is part of the Gaussian(R) 16 program.  It is based on
 the Gaussian(R) 09 system (copyright 2009, Gaussian, Inc.),
 the Gaussian(R) 03 system (copyright 2003, Gaussian, Inc.),
 the Gaussian(R) 98 system (copyright 1998, Gaussian, Inc.),
 the Gaussian(R) 94 system (copyright 1995, Gaussian, Inc.),
 the Gaussian 92(TM) system (copyright 1992, Gaussian, Inc.),
 the Gaussian 90(TM) system (copyright 1990, Gaussian, Inc.),
 the Gaussian 88(TM) system (copyright 1988, Gaussian, Inc.),
 the Gaussian 86(TM) system (copyright 1986, Carnegie Mellon
 University), and the Gaussian 82(TM) system (copyright 1983,
 Carnegie Mellon University). Gaussian is a federally registered
 trademark of Gaussian, Inc.
  
 This software contains proprietary and confidential information,
 including trade secrets, belonging to Gaussian, Inc.
  
 This software is provided under written license and may be
 used, copied, transmitted, or stored only in accord with that
 written license.
  
 The following legend is applicable only to US Government
 contracts under FAR:
  
                    RESTRICTED RIGHTS LEGEND
  
 Use, reproduction and disclosure by the US Government is
 subject to restrictions as set forth in subparagraphs (a)
 and (c) of the Commercial Computer Software - Restricted
 Rights clause in FAR 52.227-19.
  
 Gaussian, Inc.
 340 Quinnipiac St., Bldg. 40, Wallingford CT 06492
  
  
 ---------------------------------------------------------------
 Warning -- This program may not be used in any manner that
 competes with the business of Gaussian, Inc. or will provide
 assistance to any competitor of Gaussian, Inc.  The licensee
 of this program is prohibited from giving any competitor of
 Gaussian, Inc. access to this program.  By using this program,
 the user acknowledges that Gaussian, Inc. is engaged in the
 business of creating and licensing software in the field of
 computational chemistry and represents and warrants to the
 licensee that it is not a competitor of Gaussian, Inc. and that
 it will not use this program in any manner prohibited above.
 ---------------------------------------------------------------
  

 Cite this work as:
 Gaussian 16, Revision C.01,
 M. J. Frisch, G. W. Trucks, H. B. Schlegel, G. E. Scuseria, 
 M. A. Robb, J. R. Cheeseman, G. Scalmani, V. Barone, 
 G. A. Petersson, H. Nakatsuji, X. Li, M. Caricato, A. V. Marenich, 
 J. Bloino, B. G. Janesko, R. Gomperts, B. Mennucci, H. P. Hratchian, 
 J. V. Ortiz, A. F. Izmaylov, J. L. Sonnenberg, D. Williams-Young, 
 F. Ding, F. Lipparini, F. Egidi, J. Goings, B. Peng, A. Petrone, 
 T. Henderson, D. Ranasinghe, V. G. Zakrzewski, J. Gao, N. Rega, 
 G. Zheng, W. Liang, M. Hada, M. Ehara, K. Toyota, R. Fukuda, 
 J. Hasegawa, M. Ishida, T. Nakajima, Y. Honda, O. Kitao, H. Nakai, 
 T. Vreven, K. Throssell, J. A. Montgomery, Jr., J. E. Peralta, 
 F. Ogliaro, M. J. Bearpark, J. J. Heyd, E. N. Brothers, K. N. Kudin, 
 V. N. Staroverov, T. A. Keith, R. Kobayashi, J. Normand, 
 K. Raghavachari, A. P. Rendell, J. C. Burant, S. S. Iyengar, 
 J. Tomasi, M. Cossi, J. M. Millam, M. Klene, C. Adamo, R. Cammi, 
 J. W. Ochterski, R. L. Martin, K. Morokuma, O. Farkas, 
 J. B. Foresman, and D. J. Fox, Gaussian, Inc., Wallingford CT, 2019.
 
 ******************************************
 Gaussian 16:  ES64L-G16RevC.01  3-Jul-2019
                27-Oct-2023 
 ******************************************
 %mem=10GB
 %nprocshared=24
 Will use up to   24 processors via shared memory.
 ----------------------------------------------------------------------
 # opt=(calcfc,ts,noeigentest) freq 6-31+g(d,p) integral=grid=ultrafine
  m062x scrf=(SMD,solvent=water)
 ----------------------------------------------------------------------
 1/5=1,10=4,11=1,18=20,26=6,38=1/1,3;
 2/9=110,12=2,17=6,18=5,40=1/2;
 3/5=1,6=6,7=111,11=2,25=1,30=1,70=32201,71=2,72=1,74=-55,75=-5,140=1/1,2,3;
 4//1;
 5/5=2,38=5,53=1/2;
 8/6=4,10=90,11=11/1;
 11/6=1,8=1,9=11,15=111,16=1/1,2,10;
 10/6=1,13=1/2;
 6/7=2,8=2,9=2,10=2,28=1/1;
 7/10=1,25=1/1,2,3,16;
 1/5=1,10=4,11=1,18=20,26=6/3(2);
 2/9=110/2;
 99//99;
 2/9=110/2;
 3/5=1,6=6,7=111,11=2,25=1,30=1,70=32205,71=1,72=1,74=-55,75=-5/1,2,3;
 4/5=5,16=3,69=1/1;
 5/5=2,38=5,53=1/2;
 7//1,2,3,16;
 1/5=1,11=1,18=20,26=6/3(-5);
 2/9=110/2;
 6/7=2,8=2,9=2,10=2,19=2,28=1/1;
 99/9=1/99;
 -------------------
 Title Card Required
 -------------------
 Symbolic Z-matrix:
 Charge =  0 Multiplicity = 1
 N                    -0.83876  -0.84378  -0.00074 
 N                    -0.33775   0.40066  -0.00058 
 C                    -1.40759   1.19547   0.00009 
 C                    -2.6042    0.45027   0.00053 
 C                    -2.18776  -0.8679    0.00006 
 H                    -1.27922   2.26925   0.00016 
 H                    -3.61913   0.81775   0.0011 
 C                     1.42554   0.21866  -0.11523 
 O                     2.33899   1.42679  -0.09956 
 O                     2.34198  -1.11198   0.02076 
 H                     0.53737  -1.83087   0.07063 
 H                    -2.73347  -1.79993   0.00002 
 
 Add virtual bond connecting atoms H11        and N1         Dist= 3.20D+00.
 Add virtual bond connecting atoms C8         and N2         Dist= 3.36D+00.

 GradGradGradGradGradGradGradGradGradGradGradGradGradGradGradGradGradGrad
 Berny optimization.
 Initialization pass.
                           ----------------------------
                           !    Initial Parameters    !
                           ! (Angstroms and Degrees)  !
 --------------------------                            --------------------------
 ! Name  Definition              Value          Derivative Info.                !
 --------------------------------------------------------------------------------
 ! R1    R(1,2)                  1.3415         calculate D2E/DX2 analytically  !
 ! R2    R(1,5)                  1.3492         calculate D2E/DX2 analytically  !
 ! R3    R(1,11)                 1.6951         calculate D2E/DX2 analytically  !
 ! R4    R(2,3)                  1.3328         calculate D2E/DX2 analytically  !
 ! R5    R(2,8)                  1.7764         calculate D2E/DX2 analytically  !
 ! R6    R(3,4)                  1.4097         calculate D2E/DX2 analytically  !
 ! R7    R(3,6)                  1.0814         calculate D2E/DX2 analytically  !
 ! R8    R(4,5)                  1.3824         calculate D2E/DX2 analytically  !
 ! R9    R(4,7)                  1.0794         calculate D2E/DX2 analytically  !
 ! R10   R(5,12)                 1.08           calculate D2E/DX2 analytically  !
 ! R11   R(8,9)                  1.5147         calculate D2E/DX2 analytically  !
 ! R12   R(8,10)                 1.6214         calculate D2E/DX2 analytically  !
 ! A1    A(2,1,5)              112.9546         calculate D2E/DX2 analytically  !
 ! A2    A(2,1,11)             103.7089         calculate D2E/DX2 analytically  !
 ! A3    A(5,1,11)             143.2531         calculate D2E/DX2 analytically  !
 ! A4    A(1,2,3)              104.6793         calculate D2E/DX2 analytically  !
 ! A5    A(1,2,8)              106.0022         calculate D2E/DX2 analytically  !
 ! A6    A(3,2,8)              149.0868         calculate D2E/DX2 analytically  !
 ! A7    A(2,3,4)              111.4778         calculate D2E/DX2 analytically  !
 ! A8    A(2,3,6)              119.792          calculate D2E/DX2 analytically  !
 ! A9    A(4,3,6)              128.7302         calculate D2E/DX2 analytically  !
 ! A10   A(3,4,5)              104.3805         calculate D2E/DX2 analytically  !
 ! A11   A(3,4,7)              128.1833         calculate D2E/DX2 analytically  !
 ! A12   A(5,4,7)              127.4362         calculate D2E/DX2 analytically  !
 ! A13   A(1,5,4)              106.5078         calculate D2E/DX2 analytically  !
 ! A14   A(1,5,12)             121.374          calculate D2E/DX2 analytically  !
 ! A15   A(4,5,12)             132.1181         calculate D2E/DX2 analytically  !
 ! A16   A(2,8,9)              121.0804         calculate D2E/DX2 analytically  !
 ! A17   A(2,8,10)             129.7716         calculate D2E/DX2 analytically  !
 ! A18   A(9,8,10)             108.2309         calculate D2E/DX2 analytically  !
 ! D1    D(5,1,2,3)             -0.0125         calculate D2E/DX2 analytically  !
 ! D2    D(5,1,2,8)           -176.1881         calculate D2E/DX2 analytically  !
 ! D3    D(11,1,2,3)          -177.4864         calculate D2E/DX2 analytically  !
 ! D4    D(11,1,2,8)             6.338          calculate D2E/DX2 analytically  !
 ! D5    D(2,1,5,4)              0.0126         calculate D2E/DX2 analytically  !
 ! D6    D(2,1,5,12)           179.9988         calculate D2E/DX2 analytically  !
 ! D7    D(11,1,5,4)           175.9085         calculate D2E/DX2 analytically  !
 ! D8    D(11,1,5,12)           -4.1053         calculate D2E/DX2 analytically  !
 ! D9    D(1,2,3,4)              0.0075         calculate D2E/DX2 analytically  !
 ! D10   D(1,2,3,6)           -179.9879         calculate D2E/DX2 analytically  !
 ! D11   D(8,2,3,4)            172.8383         calculate D2E/DX2 analytically  !
 ! D12   D(8,2,3,6)             -7.1571         calculate D2E/DX2 analytically  !
 ! D13   D(1,2,8,9)           -178.1419         calculate D2E/DX2 analytically  !
 ! D14   D(1,2,8,10)           -10.4624         calculate D2E/DX2 analytically  !
 ! D15   D(3,2,8,9)              9.0731         calculate D2E/DX2 analytically  !
 ! D16   D(3,2,8,10)           176.7526         calculate D2E/DX2 analytically  !
 ! D17   D(2,3,4,5)             -0.0003         calculate D2E/DX2 analytically  !
 ! D18   D(2,3,4,7)            179.9991         calculate D2E/DX2 analytically  !
 ! D19   D(6,3,4,5)            179.9946         calculate D2E/DX2 analytically  !
 ! D20   D(6,3,4,7)             -0.006          calculate D2E/DX2 analytically  !
 ! D21   D(3,4,5,1)             -0.0071         calculate D2E/DX2 analytically  !
 ! D22   D(3,4,5,12)          -179.9912         calculate D2E/DX2 analytically  !
 ! D23   D(7,4,5,1)            179.9936         calculate D2E/DX2 analytically  !
 ! D24   D(7,4,5,12)             0.0094         calculate D2E/DX2 analytically  !
 --------------------------------------------------------------------------------
 Trust Radius=3.00D-01 FncErr=5.00D-06 GrdErr=5.00D-06 EigMax=2.50D+02 EigMin=1.00D-04
 Number of steps in this run=     64 maximum allowed number of steps=    100.
 Search for a saddle point of order  1.
 GradGradGradGradGradGradGradGradGradGradGradGradGradGradGradGradGradGrad

                          Input orientation:                          
 ---------------------------------------------------------------------
 Center     Atomic      Atomic             Coordinates (Angstroms)
 Number     Number       Type             X           Y           Z
 ---------------------------------------------------------------------
      1          7           0       -0.838764   -0.843778   -0.000744
      2          7           0       -0.337746    0.400657   -0.000575
      3          6           0       -1.407593    1.195467    0.000093
      4          6           0       -2.604200    0.450272    0.000525
      5          6           0       -2.187761   -0.867904    0.000064
      6          1           0       -1.279222    2.269253    0.000163
      7          1           0       -3.619130    0.817748    0.001098
      8          6           0        1.425537    0.218656   -0.115230
      9          8           0        2.338985    1.426786   -0.099563
     10          8           0        2.341985   -1.111975    0.020763
     11          1           0        0.537370   -1.830873    0.070628
     12          1           0       -2.733470   -1.799925    0.000022
 ---------------------------------------------------------------------
                    Distance matrix (angstroms):
                    1          2          3          4          5
     1  N    0.000000
     2  N    1.341506   0.000000
     3  C    2.117094   1.332778   0.000000
     4  C    2.188911   2.266997   1.409675   0.000000
     5  C    1.349213   2.243168   2.205938   1.382393   0.000000
     6  H    3.144037   2.092374   1.081432   2.250391   3.266068
     7  H    3.238998   3.307786   2.243562   1.079408   2.211389
     8  C    2.503783   1.776355   2.999014   4.038047   3.774894
     9  O    3.906830   2.868385   3.755035   5.039710   5.076117
    10  O    3.192108   3.077250   4.402732   5.187077   4.536364
    11  H    1.695051   2.398046   3.598137   3.883040   2.891129
    12  H    2.122293   3.253007   3.275717   2.253907   1.080028
                    6          7          8          9         10
     6  H    0.000000
     7  H    2.753550   0.000000
     8  C    3.396172   5.081448   0.000000
     9  O    3.716332   5.990008   1.514666   0.000000
    10  O    4.954419   6.265709   1.621404   2.541613   0.000000
    11  H    4.485087   4.929150   2.241418   3.726544   1.943176
    12  H    4.321232   2.763441   4.624423   6.012602   5.121908
                   11         12
    11  H    0.000000
    12  H    3.271749   0.000000
 Stoichiometry    C4H4N2O2
 Framework group  C1[X(C4H4N2O2)]
 Deg. of freedom    30
 Full point group                 C1      NOp   1
 Largest Abelian subgroup         C1      NOp   1
 Largest concise Abelian subgroup C1      NOp   1
                         Standard orientation:                         
 ---------------------------------------------------------------------
 Center     Atomic      Atomic             Coordinates (Angstroms)
 Number     Number       Type             X           Y           Z
 ---------------------------------------------------------------------
      1          7           0       -0.754789    0.904530    0.010314
      2          7           0       -0.215554   -0.323287   -0.026141
      3          6           0       -1.260225   -1.150875   -0.033606
      4          6           0       -2.479224   -0.443620   -0.001745
      5          6           0       -2.103790    0.886527    0.025991
      6          1           0       -1.098708   -2.219816   -0.061405
      7          1           0       -3.482227   -0.842494    0.000670
      8          6           0        1.542553   -0.089114    0.072138
      9          8           0        2.492671   -1.267402    0.016217
     10          8           0        2.415621    1.272373   -0.042118
     11          1           0        0.589147    1.935552   -0.053148
     12          1           0       -2.678028    1.800780    0.055218
 ---------------------------------------------------------------------
 Rotational constants (GHZ):           4.8067355           1.2742767           1.0078033
 Standard basis: 6-31+G(d,p) (6D, 7F)
 There are   172 symmetry adapted cartesian basis functions of A   symmetry.
 There are   172 symmetry adapted basis functions of A   symmetry.
   172 basis functions,   284 primitive gaussians,   172 cartesian basis functions
    29 alpha electrons       29 beta electrons
       nuclear repulsion energy       325.7725524873 Hartrees.
 NAtoms=   12 NActive=   12 NUniq=   12 SFac= 1.00D+00 NAtFMM=   60 NAOKFM=F Big=F
 Integral buffers will be    131072 words long.
 Raffenetti 2 integral format.
 Two-electron integral symmetry is turned on.
 Force inversion solution in PCM.
 ------------------------------------------------------------------------------
 Polarizable Continuum Model (PCM)
 =================================
 Model                : PCM.
 Atomic radii         : SMD-Coulomb.
 Polarization charges : Total charges.
 Charge compensation  : None.
 Solution method      : Matrix inversion.
 Cavity type          : VdW (van der Waals Surface) (Alpha=1.000).
 Cavity algorithm     : GePol (No added spheres)
                        Default sphere list used, NSphG=   12.
                        Lebedev-Laikov grids with approx.  5.0 points / Ang**2.
                        Smoothing algorithm: York/Karplus (Gamma=1.0000).
                        Polarization charges: spherical gaussians, with
                                              point-specific exponents (IZeta= 3).
                        Self-potential: point-specific (ISelfS= 7).
                        Self-field    : sphere-specific E.n sum rule (ISelfD= 2).
 1st derivatives      : Analytical E(r).r(x)/FMM algorithm (CHGder, D1EAlg=3).
                        Cavity 1st derivative terms included.
 2nd derivatives      : Analytical E(r).r(xy)/FMM algorithm (CHGder, D2EAlg=3).
                        Cavity 2nd derivative terms included.
 Solvent              : Water, Eps=  78.355300 Eps(inf)=   1.777849
 ------------------------------------------------------------------------------
 Spheres list:
 ISph  on   Nord     Re0    Alpha      Xe            Ye            Ze
    1   N      1    1.8900  1.000     -0.754789      0.904530      0.010314
    2   N      2    1.8900  1.000     -0.215554     -0.323287     -0.026141
    3   C      3    1.8500  1.000     -1.260225     -1.150875     -0.033606
    4   C      4    1.8500  1.000     -2.479224     -0.443620     -0.001745
    5   C      5    1.8500  1.000     -2.103790      0.886527      0.025991
    6   H      6    1.2000  1.000     -1.098708     -2.219816     -0.061405
    7   H      7    1.2000  1.000     -3.482227     -0.842494      0.000670
    8   C      8    1.8500  1.000      1.542553     -0.089114      0.072138
    9   O      9    1.5200  1.000      2.492671     -1.267402      0.016217
   10   O     10    1.5200  1.000      2.415621      1.272373     -0.042118
   11   H     11    1.2000  1.000      0.589147      1.935552     -0.053148
   12   H     12    1.2000  1.000     -2.678028      1.800780      0.055218
 ------------------------------------------------------------------------------
 ------------------------------------------------------------------------------
 Atomic radii for non-electrostatic terms: SMD-CDS.
 ------------------------------------------------------------------------------
 Nuclear repulsion after PCM non-electrostatic terms =      325.7789878104 Hartrees.
 One-electron integrals computed using PRISM.
 NBasis=   172 RedAO= T EigKep=  5.75D-05  NBF=   172
 NBsUse=   172 1.00D-06 EigRej= -1.00D+00 NBFU=   172
 ExpMin= 4.38D-02 ExpMax= 5.48D+03 ExpMxC= 8.25D+02 IAcc=3 IRadAn=         5 AccDes= 0.00D+00
 Harris functional with IExCor= 1009 and IRadAn=       5 diagonalized for initial guess.
 HarFok:  IExCor= 1009 AccDes= 0.00D+00 IRadAn=         5 IDoV= 1 UseB2=F ITyADJ=14
 ICtDFT=  3500011 ScaDFX=  1.000000  1.000000  1.000000  1.000000
 FoFCou: FMM=F IPFlag=           0 FMFlag=      100000 FMFlg1=           0
         NFxFlg=           0 DoJE=T BraDBF=F KetDBF=T FulRan=T
         wScrn=  0.000000 ICntrl=       500 IOpCl=  0 I1Cent=   200000004 NGrid=           0
         NMat0=    1 NMatS0=      1 NMatT0=    0 NMatD0=    1 NMtDS0=    0 NMtDT0=    0
 Petite list used in FoFCou.
 Keep R1 ints in memory in canonical form, NReq=134731469.
 Requested convergence on RMS density matrix=1.00D-08 within 128 cycles.
 Requested convergence on MAX density matrix=1.00D-06.
 Requested convergence on             energy=1.00D-06.
 No special actions if energy rises.
 Inv3:  Mode=1 IEnd=     3499200.
 Iteration    1 A*A^-1 deviation from unit magnitude is 4.00D-15 for   1071.
 Iteration    1 A*A^-1 deviation from orthogonality  is 1.87D-15 for    501     94.
 Iteration    1 A^-1*A deviation from unit magnitude is 3.89D-15 for   1071.
 Iteration    1 A^-1*A deviation from orthogonality  is 5.23D-15 for    531    501.
 Error on total polarization charges =  0.04602
 SCF Done:  E(RM062X) =  -414.300472149     A.U. after   17 cycles
            NFock= 17  Conv=0.31D-08     -V/T= 2.0127
 SMD-CDS (non-electrostatic) energy       (kcal/mol) =       4.04
 (included in total energy above)
 DoSCS=F DFT=T ScalE2(SS,OS)=  1.000000  1.000000
 Range of M.O.s used for correlation:     1   172
 NBasis=   172 NAE=    29 NBE=    29 NFC=     0 NFV=     0
 NROrb=    172 NOA=    29 NOB=    29 NVA=   143 NVB=   143

 **** Warning!!: The largest alpha MO coefficient is  0.46581636D+02

 Symmetrizing basis deriv contribution to polar:
 IMax=3 JMax=2 DiffMx= 0.00D+00
 G2DrvN: will do    13 centers at a time, making    1 passes.
 Calling FoFCou, ICntrl=  3107 FMM=F I1Cent=   0 AccDes= 0.00D+00.
 NEqPCM:  Using equilibrium solvation (IEInf=0, Eps=  78.3553, EpsInf=   1.7778)
 G2PCM: DoFxE=T DoFxN=T DoGrad=T DoDP/DQ/DG/TGxP=FFFF NFrqRd=   0 IEInf=0 SqF1=F DoCFld=F IF1Alg=4.
 End of G2Drv F.D. properties file   721 does not exist.
 End of G2Drv F.D. properties file   722 does not exist.
 End of G2Drv F.D. properties file   788 does not exist.
          IDoAtm=111111111111
 NEqPCM:  Using equilibrium solvation (IEInf=0, Eps=  78.3553, EpsInf=   1.7778)
          Differentiating once with respect to nuclear coordinates.
 Keep R1 ints in memory in canonical form, NReq=134659540.
          There are    39 degrees of freedom in the 1st order CPHF.  IDoFFX=6 NUNeed=     0.
     33 vectors produced by pass  0 Test12= 1.06D-14 2.56D-09 XBig12= 1.09D-01 8.37D-02.
 AX will form    33 AO Fock derivatives at one time.
     33 vectors produced by pass  1 Test12= 1.06D-14 2.56D-09 XBig12= 1.40D-02 3.56D-02.
     33 vectors produced by pass  2 Test12= 1.06D-14 2.56D-09 XBig12= 6.38D-04 4.84D-03.
     33 vectors produced by pass  3 Test12= 1.06D-14 2.56D-09 XBig12= 8.74D-06 6.21D-04.
     33 vectors produced by pass  4 Test12= 1.06D-14 2.56D-09 XBig12= 8.87D-08 5.38D-05.
     33 vectors produced by pass  5 Test12= 1.06D-14 2.56D-09 XBig12= 5.14D-10 3.62D-06.
     31 vectors produced by pass  6 Test12= 1.06D-14 2.56D-09 XBig12= 2.35D-12 1.79D-07.
     12 vectors produced by pass  7 Test12= 1.06D-14 2.56D-09 XBig12= 9.11D-15 1.12D-08.
 InvSVY:  IOpt=1 It=  1 EMax= 2.11D-15
 Solved reduced A of dimension   241 with    33 vectors.
 End of Minotr F.D. properties file   721 does not exist.
 End of Minotr F.D. properties file   722 does not exist.
 End of Minotr F.D. properties file   788 does not exist.

 **********************************************************************

            Population analysis using the SCF Density.

 **********************************************************************

 Orbital symmetries:
       Occupied  (A) (A) (A) (A) (A) (A) (A) (A) (A) (A) (A) (A)
                 (A) (A) (A) (A) (A) (A) (A) (A) (A) (A) (A) (A)
                 (A) (A) (A) (A) (A)
       Virtual   (A) (A) (A) (A) (A) (A) (A) (A) (A) (A) (A) (A)
                 (A) (A) (A) (A) (A) (A) (A) (A) (A) (A) (A) (A)
                 (A) (A) (A) (A) (A) (A) (A) (A) (A) (A) (A) (A)
                 (A) (A) (A) (A) (A) (A) (A) (A) (A) (A) (A) (A)
                 (A) (A) (A) (A) (A) (A) (A) (A) (A) (A) (A) (A)
                 (A) (A) (A) (A) (A) (A) (A) (A) (A) (A) (A) (A)
                 (A) (A) (A) (A) (A) (A) (A) (A) (A) (A) (A) (A)
                 (A) (A) (A) (A) (A) (A) (A) (A) (A) (A) (A) (A)
                 (A) (A) (A) (A) (A) (A) (A) (A) (A) (A) (A) (A)
                 (A) (A) (A) (A) (A) (A) (A) (A) (A) (A) (A) (A)
                 (A) (A) (A) (A) (A) (A) (A) (A) (A) (A) (A) (A)
                 (A) (A) (A) (A) (A) (A) (A) (A) (A) (A) (A)
 The electronic state is 1-A.
 Alpha  occ. eigenvalues --  -19.71500 -19.69258 -14.91396 -14.86897 -10.81755
 Alpha  occ. eigenvalues --  -10.62577 -10.61894 -10.57657  -1.21799  -1.09926
 Alpha  occ. eigenvalues --   -1.04463  -0.95638  -0.91151  -0.74588  -0.71372
 Alpha  occ. eigenvalues --   -0.66269  -0.61827  -0.56954  -0.53464  -0.52376
 Alpha  occ. eigenvalues --   -0.49508  -0.48626  -0.45754  -0.45364  -0.40923
 Alpha  occ. eigenvalues --   -0.37649  -0.36959  -0.36329  -0.33886
 Alpha virt. eigenvalues --   -0.09399  -0.06695  -0.03842   0.01766   0.02658
 Alpha virt. eigenvalues --    0.03767   0.04553   0.04719   0.05970   0.06424
 Alpha virt. eigenvalues --    0.06971   0.07637   0.09373   0.09970   0.10602
 Alpha virt. eigenvalues --    0.11188   0.12934   0.13630   0.14427   0.15190
 Alpha virt. eigenvalues --    0.15755   0.16508   0.18909   0.20346   0.21632
 Alpha virt. eigenvalues --    0.22442   0.23302   0.24170   0.25036   0.25932
 Alpha virt. eigenvalues --    0.26082   0.26168   0.27536   0.28378   0.28876
 Alpha virt. eigenvalues --    0.29555   0.30406   0.31510   0.32173   0.34807
 Alpha virt. eigenvalues --    0.35889   0.36395   0.39331   0.40037   0.44855
 Alpha virt. eigenvalues --    0.48450   0.54095   0.68600   0.69847   0.71755
 Alpha virt. eigenvalues --    0.72756   0.74871   0.77542   0.78112   0.82801
 Alpha virt. eigenvalues --    0.88237   0.89862   0.93096   0.93732   0.94473
 Alpha virt. eigenvalues --    0.95404   0.97225   1.00008   1.01901   1.08845
 Alpha virt. eigenvalues --    1.12617   1.16673   1.17179   1.18880   1.21275
 Alpha virt. eigenvalues --    1.23160   1.25282   1.27282   1.28910   1.31958
 Alpha virt. eigenvalues --    1.32167   1.34091   1.35251   1.35800   1.38137
 Alpha virt. eigenvalues --    1.39107   1.42558   1.44494   1.49519   1.52339
 Alpha virt. eigenvalues --    1.53810   1.54029   1.57957   1.61858   1.66674
 Alpha virt. eigenvalues --    1.70002   1.72918   1.84847   1.85259   1.86450
 Alpha virt. eigenvalues --    1.87166   1.87671   1.89144   1.90484   1.93315
 Alpha virt. eigenvalues --    1.99138   2.03512   2.05259   2.06384   2.09111
 Alpha virt. eigenvalues --    2.12924   2.17088   2.19778   2.22839   2.25819
 Alpha virt. eigenvalues --    2.27178   2.28181   2.30640   2.32154   2.39704
 Alpha virt. eigenvalues --    2.40818   2.46630   2.50949   2.52973   2.55624
 Alpha virt. eigenvalues --    2.57328   2.59782   2.65857   2.73770   2.74434
 Alpha virt. eigenvalues --    2.78165   2.83912   2.90240   2.90749   2.95748
 Alpha virt. eigenvalues --    3.00434   3.20191   3.25161   3.46530   3.76414
 Alpha virt. eigenvalues --    3.95464   4.05581   4.20712   4.23286   4.29040
 Alpha virt. eigenvalues --    4.42432   4.48218   4.73233
          Condensed to atoms (all electrons):
               1          2          3          4          5          6
     1  N    6.783055   0.164048  -0.045191  -0.148344   0.269070   0.009961
     2  N    0.164048   6.632607   0.313691  -0.112644   0.074786  -0.048487
     3  C   -0.045191   0.313691   5.285632   0.415014  -0.016050   0.394291
     4  C   -0.148344  -0.112644   0.415014   5.061950   0.402941  -0.014133
     5  C    0.269070   0.074786  -0.016050   0.402941   5.184787   0.000082
     6  H    0.009961  -0.048487   0.394291  -0.014133   0.000082   0.407853
     7  H    0.008261   0.003075  -0.005859   0.339513  -0.007338  -0.000852
     8  C    0.136573  -0.098994  -0.050902  -0.015731  -0.036620  -0.002070
     9  O    0.001640  -0.026191  -0.030500   0.004734  -0.000786  -0.000091
    10  O   -0.027067  -0.032944  -0.000424   0.001970  -0.002921  -0.000012
    11  H    0.120410  -0.010871  -0.005685   0.005118   0.008569  -0.000016
    12  H   -0.049250   0.008089   0.004015  -0.021207   0.394959  -0.000075
               7          8          9         10         11         12
     1  N    0.008261   0.136573   0.001640  -0.027067   0.120410  -0.049250
     2  N    0.003075  -0.098994  -0.026191  -0.032944  -0.010871   0.008089
     3  C   -0.005859  -0.050902  -0.030500  -0.000424  -0.005685   0.004015
     4  C    0.339513  -0.015731   0.004734   0.001970   0.005118  -0.021207
     5  C   -0.007338  -0.036620  -0.000786  -0.002921   0.008569   0.394959
     6  H   -0.000852  -0.002070  -0.000091  -0.000012  -0.000016  -0.000075
     7  H    0.417652  -0.000266   0.000000   0.000012  -0.000015  -0.000718
     8  C   -0.000266   4.996807   0.383961   0.292681   0.032001  -0.000333
     9  O    0.000000   0.383961   8.274136  -0.076800   0.002292   0.000005
    10  O    0.000012   0.292681  -0.076800   8.299671   0.063399   0.000019
    11  H   -0.000015   0.032001   0.002292   0.063399   0.318342  -0.000466
    12  H   -0.000718  -0.000333   0.000005   0.000019  -0.000466   0.406849
 Mulliken charges:
               1
     1  N   -0.223168
     2  N    0.133836
     3  C   -0.258034
     4  C    0.080821
     5  C   -0.271481
     6  H    0.253550
     7  H    0.246534
     8  C    0.362892
     9  O   -0.532400
    10  O   -0.517584
    11  H    0.466922
    12  H    0.258112
 Sum of Mulliken charges =  -0.00000
 Mulliken charges with hydrogens summed into heavy atoms:
               1
     1  N    0.243754
     2  N    0.133836
     3  C   -0.004484
     4  C    0.327354
     5  C   -0.013368
     8  C    0.362892
     9  O   -0.532400
    10  O   -0.517584
 APT charges:
               1
     1  N   -0.431112
     2  N   -0.226048
     3  C   -0.647484
     4  C   -0.353510
     5  C   -0.512876
     6  H    0.592292
     7  H    0.856470
     8  C   -0.165313
     9  O   -0.177809
    10  O   -0.270734
    11  H    0.560476
    12  H    0.775650
 Sum of APT charges =  -0.00000
 APT charges with hydrogens summed into heavy atoms:
               1
     1  N    0.129364
     2  N   -0.226048
     3  C   -0.055193
     4  C    0.502959
     5  C    0.262774
     8  C   -0.165313
     9  O   -0.177809
    10  O   -0.270734
 Electronic spatial extent (au):  <R**2>=           1067.0092
 Charge=             -0.0000 electrons
 Dipole moment (field-independent basis, Debye):
    X=            -12.1510    Y=              2.1343    Z=              0.0847  Tot=             12.3373
 Quadrupole moment (field-independent basis, Debye-Ang):
   XX=            -58.4457   YY=            -42.0293   ZZ=            -49.1260
   XY=              2.1797   XZ=              0.0194   YZ=              0.1525
 Traceless Quadrupole moment (field-independent basis, Debye-Ang):
   XX=             -8.5787   YY=              7.8377   ZZ=              0.7410
   XY=              2.1797   XZ=              0.0194   YZ=              0.1525
 Octapole moment (field-independent basis, Debye-Ang**2):
  XXX=           -104.5351  YYY=             11.3416  ZZZ=             -0.0496  XYY=            -27.0784
  XXY=              8.1004  XXZ=              0.2995  XZZ=              4.3103  YZZ=              0.3364
  YYZ=             -0.9508  XYZ=             -0.2336
 Hexadecapole moment (field-independent basis, Debye-Ang**3):
 XXXX=          -1066.6636 YYYY=           -266.8995 ZZZZ=            -51.6431 XXXY=              2.7789
 XXXZ=             -3.2601 YYYX=              7.3223 YYYZ=              0.4018 ZZZX=             -0.3159
 ZZZY=             -0.0459 XXYY=           -234.3243 XXZZ=           -195.0476 YYZZ=            -65.3907
 XXYZ=              1.8449 YYXZ=             -1.4441 ZZXY=             -2.0474
 N-N= 3.257789878104D+02 E-N=-1.617249418421D+03  KE= 4.091105299848D+02
  Exact polarizability:       0.000       0.000       0.000       0.000       0.000       0.000
 Approx polarizability:     152.511       1.677     117.630      -2.074       0.079      49.878
 D2PCM: PCM CHGder 2nd derivatives, FixD1E=F FixD2E=F DoIter=F DoCFld=F I1PDM=0
 Calling FoFJK, ICntrl=    100127 FMM=F ISym2X=0 I1Cent= 0 IOpClX= 0 NMat=1 NMatS=1 NMatT=0.
 ***** Axes restored to original set *****
 -------------------------------------------------------------------
 Center     Atomic                   Forces (Hartrees/Bohr)
 Number     Number              X              Y              Z
 -------------------------------------------------------------------
      1        7           0.064845168   -0.074248260    0.002110620
      2        7           0.053166062   -0.067988325   -0.004454580
      3        6          -0.017650959    0.051982752   -0.003040910
      4        6           0.022113162    0.017122247    0.000262357
      5        6           0.035315711   -0.004174582    0.000951386
      6        1          -0.001139433    0.000309661   -0.000381982
      7        1           0.001628386    0.003626074    0.000330388
      8        6           0.168271880    0.080684562    0.029321451
      9        8          -0.142681250   -0.145405606   -0.007013278
     10        8          -0.150038063    0.095173420   -0.014343779
     11        1          -0.035442139    0.043339806   -0.004090584
     12        1           0.001611477   -0.000421750    0.000348911
 -------------------------------------------------------------------
 Cartesian Forces:  Max     0.168271880 RMS     0.061110921
 FormGI is forming the generalized inverse of G from B-inverse, IUseBI=4.

 GradGradGradGradGradGradGradGradGradGradGradGradGradGradGradGradGradGrad
 Berny optimization.
 Internal  Forces:  Max     0.202093677 RMS     0.048130917
 Search for a saddle point.
 Step number   1 out of a maximum of   64
 All quantities printed in internal units (Hartrees-Bohrs-Radians)
 Swapping is turned off.
 Second derivative matrix not updated -- analytic derivatives used.
 ITU=  0
     Eigenvalues ---   -0.79156  -0.10200  -0.04127  -0.01276  -0.00464
     Eigenvalues ---    0.00581   0.00862   0.01227   0.01623   0.01889
     Eigenvalues ---    0.02327   0.04508   0.05763   0.08817   0.09039
     Eigenvalues ---    0.10103   0.10504   0.11258   0.15203   0.20558
     Eigenvalues ---    0.22314   0.24768   0.36154   0.38046   0.38493
     Eigenvalues ---    0.38616   0.40472   0.41467   0.47140   0.57000
 Eigenvectors required to have negative eigenvalues:
                          A5        A17       A6        R3        A3
   1                    0.45517   0.45078  -0.35217  -0.33887  -0.28507
                          A16       A2        R5        A18       R1
   1                   -0.27402   0.25742   0.22730  -0.17232   0.10792
 RFO step:  Lambda0=3.079190527D-02 Lambda=-3.10280806D-01.
 Linear search not attempted -- option 19 set.
 Maximum step size (   0.300) exceeded in Quadratic search.
    -- Step size scaled by   0.259
 Iteration  1 RMS(Cart)=  0.04941299 RMS(Int)=  0.01049085
 Iteration  2 RMS(Cart)=  0.01008138 RMS(Int)=  0.00009584
 Iteration  3 RMS(Cart)=  0.00002302 RMS(Int)=  0.00009499
 Iteration  4 RMS(Cart)=  0.00000000 RMS(Int)=  0.00009499
 Variable       Old X    -DE/DX   Delta X   Delta X   Delta X     New X
                                 (Linear)    (Quad)   (Total)
    R1        2.53508  -0.02078   0.00000  -0.00562  -0.00561   2.52947
    R2        2.54964  -0.02734   0.00000  -0.00576  -0.00577   2.54388
    R3        3.20318  -0.05418   0.00000  -0.02381  -0.02381   3.17937
    R4        2.51858   0.01041   0.00000   0.00200   0.00201   2.52060
    R5        3.35682  -0.12717   0.00000   0.01176   0.01176   3.36858
    R6        2.66390  -0.02106   0.00000  -0.00631  -0.00631   2.65759
    R7        2.04361   0.00017   0.00000   0.00003   0.00003   2.04364
    R8        2.61234   0.03669   0.00000   0.00419   0.00418   2.61652
    R9        2.03979  -0.00030   0.00000  -0.00017  -0.00017   2.03961
   R10        2.04096  -0.00045   0.00000  -0.00017  -0.00017   2.04079
   R11        2.86230  -0.20209   0.00000  -0.05851  -0.05851   2.80380
   R12        3.06401  -0.16412   0.00000  -0.27580  -0.27580   2.78821
    A1        1.97143  -0.02725   0.00000  -0.00461  -0.00460   1.96683
    A2        1.81006  -0.00962   0.00000   0.01410   0.01408   1.82415
    A3        2.50024   0.03686   0.00000  -0.00913  -0.00914   2.49110
    A4        1.82700   0.05034   0.00000   0.00871   0.00869   1.83569
    A5        1.85009  -0.06400   0.00000   0.03752   0.03743   1.88752
    A6        2.60206   0.01379   0.00000  -0.04740  -0.04738   2.55467
    A7        1.94565  -0.04117   0.00000  -0.00790  -0.00788   1.93778
    A8        2.09077   0.02179   0.00000   0.00392   0.00391   2.09467
    A9        2.24677   0.01939   0.00000   0.00398   0.00397   2.25073
   A10        1.82178   0.01067   0.00000   0.00292   0.00292   1.82470
   A11        2.23722  -0.00937   0.00000  -0.00247  -0.00247   2.23475
   A12        2.22418  -0.00131   0.00000  -0.00045  -0.00045   2.22373
   A13        1.85891   0.00741   0.00000   0.00087   0.00086   1.85978
   A14        2.11838  -0.00535   0.00000  -0.00083  -0.00083   2.11755
   A15        2.30590  -0.00206   0.00000  -0.00004  -0.00004   2.30586
   A16        2.11325   0.02060   0.00000  -0.05216  -0.05216   2.06110
   A17        2.26494  -0.11672   0.00000   0.00028   0.00029   2.26523
   A18        1.88899   0.09541   0.00000   0.05295   0.05295   1.94194
    D1       -0.00022  -0.00108   0.00000  -0.00254  -0.00262  -0.00284
    D2       -3.07506  -0.00313   0.00000   0.01013   0.01056  -3.06450
    D3       -3.09772  -0.00228   0.00000  -0.00775  -0.00792  -3.10564
    D4        0.11062  -0.00433   0.00000   0.00492   0.00526   0.11588
    D5        0.00022   0.00075   0.00000   0.00109   0.00117   0.00139
    D6        3.14157   0.00090   0.00000   0.00020   0.00024  -3.14138
    D7        3.07018  -0.00101   0.00000   0.01069   0.01077   3.08095
    D8       -0.07165  -0.00086   0.00000   0.00980   0.00983  -0.06182
    D9        0.00013   0.00098   0.00000   0.00300   0.00305   0.00318
   D10       -3.14138   0.00073   0.00000   0.00110   0.00108  -3.14030
   D11        3.01660  -0.00037   0.00000  -0.00953  -0.00927   3.00733
   D12       -0.12491  -0.00062   0.00000  -0.01143  -0.01124  -0.13615
   D13       -3.10916  -0.00030   0.00000  -0.01593  -0.01593  -3.12509
   D14       -0.18260   0.00756   0.00000  -0.00351  -0.00351  -0.18611
   D15        0.15836  -0.00293   0.00000  -0.00225  -0.00225   0.15610
   D16        3.08491   0.00493   0.00000   0.01018   0.01018   3.09509
   D17       -0.00000  -0.00056   0.00000  -0.00240  -0.00239  -0.00239
   D18        3.14158  -0.00057   0.00000  -0.00207  -0.00209   3.13948
   D19        3.14150  -0.00028   0.00000  -0.00029  -0.00019   3.14131
   D20       -0.00011  -0.00030   0.00000   0.00004   0.00010  -0.00001
   D21       -0.00012  -0.00011   0.00000   0.00076   0.00071   0.00059
   D22       -3.14144  -0.00029   0.00000   0.00178   0.00179  -3.13965
   D23        3.14148  -0.00009   0.00000   0.00043   0.00042  -3.14128
   D24        0.00016  -0.00027   0.00000   0.00145   0.00150   0.00166
         Item               Value     Threshold  Converged?
 Maximum Force            0.202094     0.000450     NO 
 RMS     Force            0.048131     0.000300     NO 
 Maximum Displacement     0.240282     0.001800     NO 
 RMS     Displacement     0.054606     0.001200     NO 
 Predicted change in Energy=-6.185158D-02
 GradGradGradGradGradGradGradGradGradGradGradGradGradGradGradGradGradGrad

                          Input orientation:                          
 ---------------------------------------------------------------------
 Center     Atomic      Atomic             Coordinates (Angstroms)
 Number     Number       Type             X           Y           Z
 ---------------------------------------------------------------------
      1          7           0       -0.843919   -0.877246    0.007445
      2          7           0       -0.322514    0.355561    0.010721
      3          6           0       -1.372080    1.178647    0.001944
      4          6           0       -2.579173    0.457065   -0.002877
      5          6           0       -2.190050   -0.871730    0.000410
      6          1           0       -1.219933    2.249338    0.001223
      7          1           0       -3.586192    0.845403   -0.008237
      8          6           0        1.449888    0.209063   -0.110538
      9          8           0        2.255966    1.454686   -0.103977
     10          8           0        2.308868   -0.984824    0.006758
     11          1           0        0.490425   -1.899652    0.077130
     12          1           0       -2.755294   -1.791927   -0.002756
 ---------------------------------------------------------------------
                    Distance matrix (angstroms):
                    1          2          3          4          5
     1  N    0.000000
     2  N    1.338539   0.000000
     3  C    2.122658   1.333842   0.000000
     4  C    2.188972   2.258981   1.406335   0.000000
     5  C    1.346161   2.234735   2.207516   1.384603   0.000000
     6  H    3.149119   2.095672   1.081447   2.249398   3.268363
     7  H    3.238492   3.300288   2.239074   1.079316   2.213105
     8  C    2.540775   1.782576   2.986009   4.038122   3.798628
     9  O    3.880671   2.805315   3.640073   4.938020   5.018981
    10  O    3.154622   2.953103   4.269661   5.096281   4.500344
    11  H    1.682452   2.398179   3.598680   3.870781   2.871838
    12  H    2.118986   3.245043   3.276830   2.255878   1.079941
                    6          7          8          9         10
     6  H    0.000000
     7  H    2.751419   0.000000
     8  C    3.362017   5.077155   0.000000
     9  O    3.567130   5.874624   1.483705   0.000000
    10  O    4.786676   6.172657   1.475456   2.442594   0.000000
    11  H    4.488340   4.915427   2.324320   3.794933   2.036811
    12  H    4.323097   2.765128   4.658233   5.971890   5.128084
                   11         12
    11  H    0.000000
    12  H    3.248489   0.000000
 Stoichiometry    C4H4N2O2
 Framework group  C1[X(C4H4N2O2)]
 Deg. of freedom    30
 Full point group                 C1      NOp   1
 Largest Abelian subgroup         C1      NOp   1
 Largest concise Abelian subgroup C1      NOp   1
                         Standard orientation:                         
 ---------------------------------------------------------------------
 Center     Atomic      Atomic             Coordinates (Angstroms)
 Number     Number       Type             X           Y           Z
 ---------------------------------------------------------------------
      1          7           0       -0.776703    0.929425    0.003213
      2          7           0       -0.190198   -0.273147   -0.035763
      3          6           0       -1.193999   -1.151503   -0.032584
      4          6           0       -2.437771   -0.496214    0.004902
      5          6           0       -2.120374    0.851326    0.027684
      6          1           0       -0.984801   -2.212196   -0.058945
      7          1           0       -3.422396   -0.938197    0.014299
      8          6           0        1.573381   -0.034282    0.065755
      9          8           0        2.444761   -1.234256    0.019481
     10          8           0        2.365503    1.206450   -0.034724
     11          1           0        0.499907    2.023467   -0.059895
     12          1           0       -2.733929    1.739465    0.059795
 ---------------------------------------------------------------------
 Rotational constants (GHZ):           4.9802287           1.3077382           1.0363065
 Standard basis: 6-31+G(d,p) (6D, 7F)
 There are   172 symmetry adapted cartesian basis functions of A   symmetry.
 There are   172 symmetry adapted basis functions of A   symmetry.
   172 basis functions,   284 primitive gaussians,   172 cartesian basis functions
    29 alpha electrons       29 beta electrons
       nuclear repulsion energy       329.6063528687 Hartrees.
 NAtoms=   12 NActive=   12 NUniq=   12 SFac= 1.00D+00 NAtFMM=   60 NAOKFM=F Big=F
 Integral buffers will be    131072 words long.
 Raffenetti 2 integral format.
 Two-electron integral symmetry is turned on.
 ------------------------------------------------------------------------------
 Polarizable Continuum Model (PCM)
 =================================
 Model                : PCM.
 Atomic radii         : SMD-Coulomb.
 Polarization charges : Total charges.
 Charge compensation  : None.
 Solution method      : Matrix inversion.
 Cavity type          : VdW (van der Waals Surface) (Alpha=1.000).
 Cavity algorithm     : GePol (No added spheres)
                        Default sphere list used, NSphG=   12.
                        Lebedev-Laikov grids with approx.  5.0 points / Ang**2.
                        Smoothing algorithm: York/Karplus (Gamma=1.0000).
                        Polarization charges: spherical gaussians, with
                                              point-specific exponents (IZeta= 3).
                        Self-potential: point-specific (ISelfS= 7).
                        Self-field    : sphere-specific E.n sum rule (ISelfD= 2).
 1st derivatives      : Analytical E(r).r(x)/FMM algorithm (CHGder, D1EAlg=3).
                        Cavity 1st derivative terms included.
 Solvent              : Water, Eps=  78.355300 Eps(inf)=   1.777849
 ------------------------------------------------------------------------------
 Spheres list:
 ISph  on   Nord     Re0    Alpha      Xe            Ye            Ze
    1   N      1    1.8900  1.000     -0.776703      0.929425      0.003213
    2   N      2    1.8900  1.000     -0.190198     -0.273147     -0.035763
    3   C      3    1.8500  1.000     -1.193999     -1.151503     -0.032584
    4   C      4    1.8500  1.000     -2.437771     -0.496214      0.004902
    5   C      5    1.8500  1.000     -2.120374      0.851326      0.027684
    6   H      6    1.2000  1.000     -0.984801     -2.212196     -0.058945
    7   H      7    1.2000  1.000     -3.422396     -0.938197      0.014299
    8   C      8    1.8500  1.000      1.573381     -0.034282      0.065755
    9   O      9    1.5200  1.000      2.444761     -1.234256      0.019481
   10   O     10    1.5200  1.000      2.365503      1.206450     -0.034724
   11   H     11    1.2000  1.000      0.499907      2.023467     -0.059895
   12   H     12    1.2000  1.000     -2.733929      1.739465      0.059795
 ------------------------------------------------------------------------------
 ------------------------------------------------------------------------------
 Atomic radii for non-electrostatic terms: SMD-CDS.
 ------------------------------------------------------------------------------
 Nuclear repulsion after PCM non-electrostatic terms =      329.6127334396 Hartrees.
 One-electron integrals computed using PRISM.
 NBasis=   172 RedAO= T EigKep=  5.45D-05  NBF=   172
 NBsUse=   172 1.00D-06 EigRej= -1.00D+00 NBFU=   172
 Initial guess from the checkpoint file:  "/home/Tinker/g16/scratch/Gau-1650534.chk"
 B after Tr=    -0.000000    0.000000   -0.000000
         Rot=    0.999985    0.000384    0.000025   -0.005548 Ang=   0.64 deg.
 ExpMin= 4.38D-02 ExpMax= 5.48D+03 ExpMxC= 8.25D+02 IAcc=3 IRadAn=         5 AccDes= 0.00D+00
 Harris functional with IExCor= 1009 and IRadAn=       5 diagonalized for initial guess.
 HarFok:  IExCor= 1009 AccDes= 0.00D+00 IRadAn=         5 IDoV= 1 UseB2=F ITyADJ=14
 ICtDFT=  3500011 ScaDFX=  1.000000  1.000000  1.000000  1.000000
 FoFCou: FMM=F IPFlag=           0 FMFlag=      100000 FMFlg1=           0
         NFxFlg=           0 DoJE=T BraDBF=F KetDBF=T FulRan=T
         wScrn=  0.000000 ICntrl=       500 IOpCl=  0 I1Cent=   200000004 NGrid=           0
         NMat0=    1 NMatS0=      1 NMatT0=    0 NMatD0=    1 NMtDS0=    0 NMtDT0=    0
 Petite list used in FoFCou.
 Keep R1 ints in memory in canonical form, NReq=134731469.
 Requested convergence on RMS density matrix=1.00D-08 within 128 cycles.
 Requested convergence on MAX density matrix=1.00D-06.
 Requested convergence on             energy=1.00D-06.
 No special actions if energy rises.
 Inv3:  Mode=1 IEnd=     3564300.
 Iteration    1 A*A^-1 deviation from unit magnitude is 2.33D-15 for   1066.
 Iteration    1 A*A^-1 deviation from orthogonality  is 1.47D-15 for    725    251.
 Iteration    1 A^-1*A deviation from unit magnitude is 2.44D-15 for    245.
 Iteration    1 A^-1*A deviation from orthogonality  is 1.12D-15 for    220    202.
 Error on total polarization charges =  0.04579
 SCF Done:  E(RM062X) =  -414.361708084     A.U. after   15 cycles
            NFock= 15  Conv=0.37D-08     -V/T= 2.0125
 SMD-CDS (non-electrostatic) energy       (kcal/mol) =       4.00
 (included in total energy above)
 D1PCM: PCM CHGder 1st derivatives, ID1Alg=3 FixD1E=F DoIter=F DoCFld=F I1PDM=0.
 Calling FoFJK, ICntrl=      2127 FMM=F ISym2X=0 I1Cent= 0 IOpClX= 0 NMat=1 NMatS=1 NMatT=0.
 ***** Axes restored to original set *****
 -------------------------------------------------------------------
 Center     Atomic                   Forces (Hartrees/Bohr)
 Number     Number              X              Y              Z
 -------------------------------------------------------------------
      1        7           0.071373611   -0.073652602    0.002484289
      2        7           0.051509981   -0.059704994   -0.005307476
      3        6          -0.012240972    0.045219431   -0.002882456
      4        6           0.019291356    0.013185284    0.000347082
      5        6           0.028620868   -0.005212691    0.001080858
      6        1          -0.000699387    0.000188914   -0.000406226
      7        1           0.001421870    0.002886244    0.000297173
      8        6           0.170494700    0.067909690    0.030041822
      9        8          -0.124866308   -0.138880489   -0.006495154
     10        8          -0.156049264    0.099135782   -0.015307923
     11        1          -0.050085419    0.049286532   -0.004270405
     12        1           0.001228965   -0.000361101    0.000418417
 -------------------------------------------------------------------
 Cartesian Forces:  Max     0.170494700 RMS     0.059919976

 GradGradGradGradGradGradGradGradGradGradGradGradGradGradGradGradGradGrad
 Berny optimization.
 FormGI is forming the generalized inverse of G from B-inverse, IUseBI=4.
 Internal  Forces:  Max     0.184462422 RMS     0.044744944
 Search for a saddle point.
 Step number   2 out of a maximum of   64
 All quantities printed in internal units (Hartrees-Bohrs-Radians)
 Swapping is turned off.
 Update second derivatives using D2CorX and points    1    2
 ITU=  0  0
     Eigenvalues ---   -0.79083  -0.09548  -0.03853  -0.01011  -0.00460
     Eigenvalues ---    0.00811   0.00898   0.01229   0.01625   0.02307
     Eigenvalues ---    0.03391   0.04557   0.05763   0.08818   0.09056
     Eigenvalues ---    0.10132   0.10526   0.11258   0.15194   0.20946
     Eigenvalues ---    0.22399   0.24819   0.36187   0.38047   0.38494
     Eigenvalues ---    0.38616   0.40493   0.41487   0.47148   0.57003
 Eigenvectors required to have negative eigenvalues:
                          A5        A17       A6        R3        A3
   1                    0.45513   0.45042  -0.35285  -0.34019  -0.28430
                          A16       A2        R5        A18       R1
   1                   -0.27556   0.25658   0.22668  -0.17023   0.10689
 RFO step:  Lambda0=1.529546786D-02 Lambda=-2.95042903D-01.
 Linear search not attempted -- option 19 set.
 Maximum step size (   0.300) exceeded in Quadratic search.
    -- Step size scaled by   0.246
 Iteration  1 RMS(Cart)=  0.03723567 RMS(Int)=  0.01103112
 Iteration  2 RMS(Cart)=  0.01035857 RMS(Int)=  0.00005840
 Iteration  3 RMS(Cart)=  0.00000726 RMS(Int)=  0.00005824
 Iteration  4 RMS(Cart)=  0.00000000 RMS(Int)=  0.00005824
 Variable       Old X    -DE/DX   Delta X   Delta X   Delta X     New X
                                 (Linear)    (Quad)   (Total)
    R1        2.52947  -0.01557   0.00000  -0.00578  -0.00578   2.52370
    R2        2.54388  -0.02243   0.00000  -0.00352  -0.00353   2.54035
    R3        3.17937  -0.06985   0.00000  -0.03235  -0.03235   3.14702
    R4        2.52060   0.00860   0.00000   0.00073   0.00074   2.52134
    R5        3.36858  -0.11267   0.00000   0.01991   0.01991   3.38849
    R6        2.65759  -0.01779   0.00000  -0.00391  -0.00391   2.65367
    R7        2.04364   0.00009   0.00000  -0.00002  -0.00002   2.04362
    R8        2.61652   0.02923   0.00000   0.00317   0.00316   2.61968
    R9        2.03961  -0.00029   0.00000  -0.00014  -0.00014   2.03947
   R10        2.04079  -0.00034   0.00000  -0.00011  -0.00011   2.04068
   R11        2.80380  -0.18446   0.00000  -0.03210  -0.03210   2.77169
   R12        2.78821  -0.17228   0.00000  -0.28079  -0.28079   2.50742
    A1        1.96683  -0.02258   0.00000  -0.00400  -0.00399   1.96284
    A2        1.82415  -0.00244   0.00000   0.01087   0.01086   1.83500
    A3        2.49110   0.02500   0.00000  -0.00655  -0.00656   2.48453
    A4        1.83569   0.04066   0.00000   0.00792   0.00791   1.84360
    A5        1.88752  -0.04245   0.00000   0.02418   0.02411   1.91163
    A6        2.55467   0.00185   0.00000  -0.03328  -0.03327   2.52140
    A7        1.93778  -0.03333   0.00000  -0.00669  -0.00667   1.93110
    A8        2.09467   0.01740   0.00000   0.00339   0.00338   2.09806
    A9        2.25073   0.01593   0.00000   0.00329   0.00329   2.25402
   A10        1.82470   0.00909   0.00000   0.00214   0.00214   1.82684
   A11        2.23475  -0.00782   0.00000  -0.00192  -0.00192   2.23283
   A12        2.22373  -0.00128   0.00000  -0.00022  -0.00022   2.22351
   A13        1.85978   0.00615   0.00000   0.00061   0.00061   1.86038
   A14        2.11755  -0.00434   0.00000  -0.00052  -0.00052   2.11703
   A15        2.30586  -0.00181   0.00000  -0.00009  -0.00009   2.30578
   A16        2.06110   0.00864   0.00000  -0.04205  -0.04204   2.01905
   A17        2.26523  -0.09966   0.00000  -0.02222  -0.02222   2.24301
   A18        1.94194   0.09074   0.00000   0.06581   0.06582   2.00775
    D1       -0.00284  -0.00129   0.00000  -0.00157  -0.00162  -0.00446
    D2       -3.06450  -0.00195   0.00000   0.00964   0.00990  -3.05460
    D3       -3.10564  -0.00182   0.00000  -0.00703  -0.00714  -3.11278
    D4        0.11588  -0.00248   0.00000   0.00417   0.00438   0.12026
    D5        0.00139   0.00087   0.00000   0.00048   0.00053   0.00192
    D6       -3.14138   0.00085   0.00000  -0.00005  -0.00003  -3.14140
    D7        3.08095  -0.00036   0.00000   0.00993   0.00997   3.09092
    D8       -0.06182  -0.00038   0.00000   0.00940   0.00942  -0.05240
    D9        0.00318   0.00116   0.00000   0.00203   0.00206   0.00524
   D10       -3.14030   0.00078   0.00000   0.00058   0.00057  -3.13973
   D11        3.00733  -0.00001   0.00000  -0.00929  -0.00914   2.99819
   D12       -0.13615  -0.00039   0.00000  -0.01074  -0.01063  -0.14678
   D13       -3.12509  -0.00209   0.00000  -0.01639  -0.01638  -3.14148
   D14       -0.18611   0.00765   0.00000   0.00091   0.00091  -0.18519
   D15        0.15610  -0.00440   0.00000  -0.00408  -0.00409   0.15202
   D16        3.09509   0.00533   0.00000   0.01322   0.01321   3.10830
   D17       -0.00239  -0.00059   0.00000  -0.00175  -0.00174  -0.00413
   D18        3.13948  -0.00057   0.00000  -0.00165  -0.00167   3.13782
   D19        3.14131  -0.00015   0.00000  -0.00014  -0.00008   3.14123
   D20       -0.00001  -0.00014   0.00000  -0.00004  -0.00001  -0.00001
   D21        0.00059  -0.00013   0.00000   0.00075   0.00072   0.00131
   D22       -3.13965  -0.00010   0.00000   0.00136   0.00136  -3.13829
   D23       -3.14128  -0.00015   0.00000   0.00065   0.00065  -3.14064
   D24        0.00166  -0.00012   0.00000   0.00126   0.00129   0.00295
         Item               Value     Threshold  Converged?
 Maximum Force            0.184462     0.000450     NO 
 RMS     Force            0.044745     0.000300     NO 
 Maximum Displacement     0.194907     0.001800     NO 
 RMS     Displacement     0.044624     0.001200     NO 
 Predicted change in Energy=-6.374549D-02
 GradGradGradGradGradGradGradGradGradGradGradGradGradGradGradGradGradGrad

                          Input orientation:                          
 ---------------------------------------------------------------------
 Center     Atomic      Atomic             Coordinates (Angstroms)
 Number     Number       Type             X           Y           Z
 ---------------------------------------------------------------------
      1          7           0       -0.842503   -0.901885    0.015066
      2          7           0       -0.308936    0.322362    0.021377
      3          6           0       -1.343037    1.165293    0.004521
      4          6           0       -2.556984    0.459474   -0.005944
      5          6           0       -2.186473   -0.876357    0.000239
      6          1           0       -1.174372    2.233497    0.003798
      7          1           0       -3.558328    0.861915   -0.016776
      8          6           0        1.475411    0.199186   -0.105805
      9          8           0        2.201802    1.473388   -0.110863
     10          8           0        2.238336   -0.881683   -0.004595
     11          1           0        0.455900   -1.942522    0.082513
     12          1           0       -2.764824   -1.788284   -0.006286
 ---------------------------------------------------------------------
                    Distance matrix (angstroms):
                    1          2          3          4          5
     1  N    0.000000
     2  N    1.335483   0.000000
     3  C    2.126939   1.334235   0.000000
     4  C    2.189335   2.252392   1.404264   0.000000
     5  C    1.344294   2.227671   2.209012   1.386276   0.000000
     6  H    3.152917   2.098030   1.081439   2.249193   3.270406
     7  H    3.238473   3.294104   2.236069   1.079242   2.214467
     8  C    2.568987   1.793109   2.981473   4.042021   3.818040
     9  O    3.863363   2.765168   3.560073   4.866731   4.979016
    10  O    3.080968   2.817621   4.125097   4.979337   4.424814
    11  H    1.665330   2.391320   3.591764   3.854204   2.850546
    12  H    2.116950   3.238360   3.277988   2.257347   1.079881
                    6          7          8          9         10
     6  H    0.000000
     7  H    2.750437   0.000000
     8  C    3.342422   5.077958   0.000000
     9  O    3.462580   5.793258   1.466717   0.000000
    10  O    4.620714   6.053230   1.326867   2.357751   0.000000
    11  H    4.483651   4.897831   2.379450   3.841095   2.076064
    12  H    4.324854   2.766462   4.683965   5.942795   5.084637
                   11         12
    11  H    0.000000
    12  H    3.225637   0.000000
 Stoichiometry    C4H4N2O2
 Framework group  C1[X(C4H4N2O2)]
 Deg. of freedom    30
 Full point group                 C1      NOp   1
 Largest Abelian subgroup         C1      NOp   1
 Largest concise Abelian subgroup C1      NOp   1
                         Standard orientation:                         
 ---------------------------------------------------------------------
 Center     Atomic      Atomic             Coordinates (Angstroms)
 Number     Number       Type             X           Y           Z
 ---------------------------------------------------------------------
      1          7           0       -0.791431    0.943985   -0.002906
      2          7           0       -0.167277   -0.235905   -0.045407
      3          6           0       -1.134493   -1.154886   -0.033218
      4          6           0       -2.397859   -0.543422    0.011211
      5          6           0       -2.129237    0.816439    0.030750
      6          1           0       -0.885802   -2.207007   -0.059783
      7          1           0       -3.365713   -1.020672    0.027153
      8          6           0        1.604532    0.019190    0.058798
      9          8           0        2.424886   -1.196148    0.023712
     10          8           0        2.282080    1.156700   -0.028259
     11          1           0        0.423580    2.081188   -0.064889
     12          1           0       -2.774498    1.681587    0.066846
 ---------------------------------------------------------------------
 Rotational constants (GHZ):           5.1365321           1.3435209           1.0655555
 Standard basis: 6-31+G(d,p) (6D, 7F)
 There are   172 symmetry adapted cartesian basis functions of A   symmetry.
 There are   172 symmetry adapted basis functions of A   symmetry.
   172 basis functions,   284 primitive gaussians,   172 cartesian basis functions
    29 alpha electrons       29 beta electrons
       nuclear repulsion energy       333.7922457859 Hartrees.
 NAtoms=   12 NActive=   12 NUniq=   12 SFac= 1.00D+00 NAtFMM=   60 NAOKFM=F Big=F
 Integral buffers will be    131072 words long.
 Raffenetti 2 integral format.
 Two-electron integral symmetry is turned on.
 ------------------------------------------------------------------------------
 Polarizable Continuum Model (PCM)
 =================================
 Model                : PCM.
 Atomic radii         : SMD-Coulomb.
 Polarization charges : Total charges.
 Charge compensation  : None.
 Solution method      : Matrix inversion.
 Cavity type          : VdW (van der Waals Surface) (Alpha=1.000).
 Cavity algorithm     : GePol (No added spheres)
                        Default sphere list used, NSphG=   12.
                        Lebedev-Laikov grids with approx.  5.0 points / Ang**2.
                        Smoothing algorithm: York/Karplus (Gamma=1.0000).
                        Polarization charges: spherical gaussians, with
                                              point-specific exponents (IZeta= 3).
                        Self-potential: point-specific (ISelfS= 7).
                        Self-field    : sphere-specific E.n sum rule (ISelfD= 2).
 1st derivatives      : Analytical E(r).r(x)/FMM algorithm (CHGder, D1EAlg=3).
                        Cavity 1st derivative terms included.
 Solvent              : Water, Eps=  78.355300 Eps(inf)=   1.777849
 ------------------------------------------------------------------------------
 Spheres list:
 ISph  on   Nord     Re0    Alpha      Xe            Ye            Ze
    1   N      1    1.8900  1.000     -0.791431      0.943985     -0.002906
    2   N      2    1.8900  1.000     -0.167277     -0.235905     -0.045407
    3   C      3    1.8500  1.000     -1.134493     -1.154886     -0.033218
    4   C      4    1.8500  1.000     -2.397859     -0.543422      0.011211
    5   C      5    1.8500  1.000     -2.129237      0.816439      0.030750
    6   H      6    1.2000  1.000     -0.885802     -2.207007     -0.059783
    7   H      7    1.2000  1.000     -3.365713     -1.020672      0.027153
    8   C      8    1.8500  1.000      1.604532      0.019190      0.058798
    9   O      9    1.5200  1.000      2.424886     -1.196148      0.023712
   10   O     10    1.5200  1.000      2.282080      1.156700     -0.028259
   11   H     11    1.2000  1.000      0.423580      2.081188     -0.064889
   12   H     12    1.2000  1.000     -2.774498      1.681587      0.066846
 ------------------------------------------------------------------------------
 ------------------------------------------------------------------------------
 Atomic radii for non-electrostatic terms: SMD-CDS.
 ------------------------------------------------------------------------------
 Nuclear repulsion after PCM non-electrostatic terms =      333.7995320745 Hartrees.
 One-electron integrals computed using PRISM.
 NBasis=   172 RedAO= T EigKep=  5.25D-05  NBF=   172
 NBsUse=   172 1.00D-06 EigRej= -1.00D+00 NBFU=   172
 Initial guess from the checkpoint file:  "/home/Tinker/g16/scratch/Gau-1650534.chk"
 B after Tr=    -0.000000    0.000000   -0.000000
         Rot=    0.999975    0.000204   -0.000044   -0.007060 Ang=   0.81 deg.
 ExpMin= 4.38D-02 ExpMax= 5.48D+03 ExpMxC= 8.25D+02 IAcc=3 IRadAn=         5 AccDes= 0.00D+00
 Harris functional with IExCor= 1009 and IRadAn=       5 diagonalized for initial guess.
 HarFok:  IExCor= 1009 AccDes= 0.00D+00 IRadAn=         5 IDoV= 1 UseB2=F ITyADJ=14
 ICtDFT=  3500011 ScaDFX=  1.000000  1.000000  1.000000  1.000000
 FoFCou: FMM=F IPFlag=           0 FMFlag=      100000 FMFlg1=           0
         NFxFlg=           0 DoJE=T BraDBF=F KetDBF=T FulRan=T
         wScrn=  0.000000 ICntrl=       500 IOpCl=  0 I1Cent=   200000004 NGrid=           0
         NMat0=    1 NMatS0=      1 NMatT0=    0 NMatD0=    1 NMtDS0=    0 NMtDT0=    0
 Petite list used in FoFCou.
 Keep R1 ints in memory in canonical form, NReq=134731469.
 Requested convergence on RMS density matrix=1.00D-08 within 128 cycles.
 Requested convergence on MAX density matrix=1.00D-06.
 Requested convergence on             energy=1.00D-06.
 No special actions if energy rises.
 Inv3:  Mode=1 IEnd=     3505683.
 Iteration    1 A*A^-1 deviation from unit magnitude is 3.89D-15 for   1064.
 Iteration    1 A*A^-1 deviation from orthogonality  is 2.16D-15 for    671    348.
 Iteration    1 A^-1*A deviation from unit magnitude is 4.11D-15 for   1064.
 Iteration    1 A^-1*A deviation from orthogonality  is 1.18D-15 for    207    122.
 Error on total polarization charges =  0.04543
 SCF Done:  E(RM062X) =  -414.419967219     A.U. after   14 cycles
            NFock= 14  Conv=0.90D-08     -V/T= 2.0119
 SMD-CDS (non-electrostatic) energy       (kcal/mol) =       4.57
 (included in total energy above)
 D1PCM: PCM CHGder 1st derivatives, ID1Alg=3 FixD1E=F DoIter=F DoCFld=F I1PDM=0.
 Calling FoFJK, ICntrl=      2127 FMM=F ISym2X=0 I1Cent= 0 IOpClX= 0 NMat=1 NMatS=1 NMatT=0.
 ***** Axes restored to original set *****
 -------------------------------------------------------------------
 Center     Atomic                   Forces (Hartrees/Bohr)
 Number     Number              X              Y              Z
 -------------------------------------------------------------------
      1        7           0.076173269   -0.072191416    0.002664140
      2        7           0.047043052   -0.051014605   -0.005815219
      3        6          -0.008495321    0.038156042   -0.002587619
      4        6           0.016264641    0.010153371    0.000441235
      5        6           0.022828227   -0.005883565    0.001171388
      6        1          -0.000364627    0.000053807   -0.000415766
      7        1           0.001189994    0.002206878    0.000232436
      8        6           0.146530616    0.081474461    0.026413044
      9        8          -0.107601458   -0.124519794   -0.005531819
     10        8          -0.133731543    0.068601580   -0.012786124
     11        1          -0.060728374    0.053218082   -0.004227806
     12        1           0.000891522   -0.000254841    0.000442110
 -------------------------------------------------------------------
 Cartesian Forces:  Max     0.146530616 RMS     0.053632077

 GradGradGradGradGradGradGradGradGradGradGradGradGradGradGradGradGradGrad
 Berny optimization.
 FormGI is forming the generalized inverse of G from B-inverse, IUseBI=4.
 Internal  Forces:  Max     0.161437000 RMS     0.038425433
 Search for a saddle point.
 Step number   3 out of a maximum of   64
 All quantities printed in internal units (Hartrees-Bohrs-Radians)
 Swapping is turned off.
 Update second derivatives using D2CorX and points    2    3
 ITU=  0  0  0
     Eigenvalues ---   -0.78957  -0.06377  -0.02789  -0.00708  -0.00475
     Eigenvalues ---    0.00844   0.00989   0.01230   0.01625   0.02313
     Eigenvalues ---    0.04474   0.05761   0.08790   0.08979   0.09723
     Eigenvalues ---    0.10372   0.11248   0.12748   0.15282   0.22145
     Eigenvalues ---    0.24477   0.25936   0.36205   0.38046   0.38494
     Eigenvalues ---    0.38618   0.40559   0.41507   0.47147   0.57002
 Eigenvectors required to have negative eigenvalues:
                          A5        A17       A6        R3        A3
   1                    0.45508   0.44858  -0.35341  -0.34142  -0.28366
                          A16       A2        R5        A18       R1
   1                   -0.27680   0.25596   0.22608  -0.16739   0.10616
 RFO step:  Lambda0=6.577688317D-03 Lambda=-2.41993259D-01.
 Linear search not attempted -- option 19 set.
 Maximum step size (   0.300) exceeded in Quadratic search.
    -- Step size scaled by   0.232
 Iteration  1 RMS(Cart)=  0.03310334 RMS(Int)=  0.00915335
 Iteration  2 RMS(Cart)=  0.00852962 RMS(Int)=  0.00002400
 Iteration  3 RMS(Cart)=  0.00001654 RMS(Int)=  0.00002151
 Iteration  4 RMS(Cart)=  0.00000000 RMS(Int)=  0.00002151
 Variable       Old X    -DE/DX   Delta X   Delta X   Delta X     New X
                                 (Linear)    (Quad)   (Total)
    R1        2.52370  -0.01089   0.00000  -0.00170  -0.00169   2.52200
    R2        2.54035  -0.01810   0.00000  -0.00264  -0.00264   2.53770
    R3        3.14702  -0.08077   0.00000  -0.10837  -0.10837   3.03864
    R4        2.52134   0.00712   0.00000  -0.00033  -0.00033   2.52101
    R5        3.38849  -0.09668   0.00000  -0.01390  -0.01390   3.37459
    R6        2.65367  -0.01472   0.00000  -0.00242  -0.00242   2.65125
    R7        2.04362  -0.00001   0.00000  -0.00006  -0.00006   2.04356
    R8        2.61968   0.02286   0.00000   0.00163   0.00163   2.62131
    R9        2.03947  -0.00028   0.00000  -0.00021  -0.00021   2.03926
   R10        2.04068  -0.00026   0.00000  -0.00010  -0.00010   2.04058
   R11        2.77169  -0.16144   0.00000  -0.26460  -0.26460   2.50710
   R12        2.50742  -0.13376   0.00000  -0.00867  -0.00867   2.49875
    A1        1.96284  -0.01840   0.00000  -0.00341  -0.00341   1.95943
    A2        1.83500   0.00361   0.00000   0.01863   0.01862   1.85363
    A3        2.48453   0.01477   0.00000  -0.01502  -0.01503   2.46951
    A4        1.84360   0.03210   0.00000   0.00541   0.00540   1.84900
    A5        1.91163  -0.02675   0.00000   0.01413   0.01411   1.92574
    A6        2.52140  -0.00534   0.00000  -0.02031  -0.02032   2.50109
    A7        1.93110  -0.02641   0.00000  -0.00453  -0.00452   1.92658
    A8        2.09806   0.01360   0.00000   0.00207   0.00207   2.10013
    A9        2.25402   0.01281   0.00000   0.00245   0.00245   2.25647
   A10        1.82684   0.00759   0.00000   0.00179   0.00178   1.82862
   A11        2.23283  -0.00632   0.00000  -0.00111  -0.00110   2.23173
   A12        2.22351  -0.00127   0.00000  -0.00068  -0.00068   2.22283
   A13        1.86038   0.00512   0.00000   0.00074   0.00074   1.86112
   A14        2.11703  -0.00348   0.00000  -0.00047  -0.00047   2.11656
   A15        2.30578  -0.00163   0.00000  -0.00027  -0.00027   2.30550
   A16        2.01905  -0.00073   0.00000  -0.02357  -0.02356   1.99549
   A17        2.24301  -0.08617   0.00000  -0.04129  -0.04128   2.20173
   A18        2.00775   0.08702   0.00000   0.06654   0.06654   2.07430
    D1       -0.00446  -0.00136   0.00000  -0.00106  -0.00107  -0.00553
    D2       -3.05460  -0.00109   0.00000   0.00595   0.00605  -3.04855
    D3       -3.11278  -0.00140   0.00000  -0.00471  -0.00480  -3.11759
    D4        0.12026  -0.00113   0.00000   0.00229   0.00231   0.12257
    D5        0.00192   0.00092   0.00000   0.00044   0.00046   0.00238
    D6       -3.14140   0.00079   0.00000   0.00010   0.00011  -3.14129
    D7        3.09092   0.00003   0.00000   0.00752   0.00749   3.09842
    D8       -0.05240  -0.00010   0.00000   0.00718   0.00715  -0.04525
    D9        0.00524   0.00119   0.00000   0.00124   0.00124   0.00648
   D10       -3.13973   0.00069   0.00000   0.00048   0.00048  -3.13926
   D11        2.99819   0.00046   0.00000  -0.00518  -0.00514   2.99305
   D12       -0.14678  -0.00004   0.00000  -0.00594  -0.00591  -0.15269
   D13       -3.14148  -0.00335   0.00000  -0.01196  -0.01196   3.12974
   D14       -0.18519   0.00770   0.00000   0.00677   0.00677  -0.17842
   D15        0.15202  -0.00542   0.00000  -0.00486  -0.00486   0.14716
   D16        3.10830   0.00562   0.00000   0.01388   0.01387   3.12218
   D17       -0.00413  -0.00056   0.00000  -0.00097  -0.00096  -0.00509
   D18        3.13782  -0.00056   0.00000  -0.00093  -0.00093   3.13689
   D19        3.14123   0.00000   0.00000  -0.00012  -0.00010   3.14112
   D20       -0.00001   0.00001   0.00000  -0.00008  -0.00007  -0.00008
   D21        0.00131  -0.00016   0.00000   0.00032   0.00031   0.00161
   D22       -3.13829  -0.00001   0.00000   0.00071   0.00070  -3.13759
   D23       -3.14064  -0.00016   0.00000   0.00027   0.00028  -3.14036
   D24        0.00295  -0.00001   0.00000   0.00067   0.00067   0.00362
         Item               Value     Threshold  Converged?
 Maximum Force            0.161437     0.000450     NO 
 RMS     Force            0.038425     0.000300     NO 
 Maximum Displacement     0.203512     0.001800     NO 
 RMS     Displacement     0.038581     0.001200     NO 
 Predicted change in Energy=-6.450610D-02
 GradGradGradGradGradGradGradGradGradGradGradGradGradGradGradGradGradGrad

                          Input orientation:                          
 ---------------------------------------------------------------------
 Center     Atomic      Atomic             Coordinates (Angstroms)
 Number     Number       Type             X           Y           Z
 ---------------------------------------------------------------------
      1          7           0       -0.822385   -0.902890    0.018842
      2          7           0       -0.293063    0.322207    0.027569
      3          6           0       -1.325048    1.167361    0.006528
      4          6           0       -2.536254    0.459446   -0.007529
      5          6           0       -2.164895   -0.877038   -0.000326
      6          1           0       -1.156183    2.235500    0.006289
      7          1           0       -3.537921    0.860688   -0.021319
      8          6           0        1.485584    0.230720   -0.102672
      9          8           0        2.094108    1.409557   -0.115713
     10          8           0        2.219399   -0.865034   -0.006414
     11          1           0        0.415647   -1.927095    0.081164
     12          1           0       -2.742998   -1.789039   -0.009175
 ---------------------------------------------------------------------
                    Distance matrix (angstroms):
                    1          2          3          4          5
     1  N    0.000000
     2  N    1.334586   0.000000
     3  C    2.130437   1.334062   0.000000
     4  C    2.189521   2.247659   1.402983   0.000000
     5  C    1.342895   2.223222   2.210193   1.387137   0.000000
     6  H    3.156116   2.099076   1.081405   2.249256   3.271915
     7  H    3.238203   3.289598   2.234196   1.079130   2.214799
     8  C    2.574210   1.785755   2.964604   4.029461   3.816228
     9  O    3.724439   2.627060   3.429902   4.728072   4.835383
    10  O    3.042124   2.779058   4.085817   4.936647   4.384314
    11  H    1.607981   2.358919   3.551231   3.796994   2.787195
    12  H    2.115372   3.234329   3.278891   2.257971   1.079827
                    6          7          8          9         10
     6  H    0.000000
     7  H    2.750190   0.000000
     8  C    3.318125   5.063505   0.000000
     9  O    3.355809   5.659498   1.326698   0.000000
    10  O    4.583451   6.010414   1.322280   2.280659   0.000000
    11  H    4.450106   4.838692   2.415517   3.740218   2.095033
    12  H    4.326098   2.766424   4.687117   5.799996   5.047690
                   11         12
    11  H    0.000000
    12  H    3.162951   0.000000
 Stoichiometry    C4H4N2O2
 Framework group  C1[X(C4H4N2O2)]
 Deg. of freedom    30
 Full point group                 C1      NOp   1
 Largest Abelian subgroup         C1      NOp   1
 Largest concise Abelian subgroup C1      NOp   1
                         Standard orientation:                         
 ---------------------------------------------------------------------
 Center     Atomic      Atomic             Coordinates (Angstroms)
 Number     Number       Type             X           Y           Z
 ---------------------------------------------------------------------
      1          7           0       -0.757945    0.950362   -0.005306
      2          7           0       -0.147860   -0.235713   -0.051587
      3          6           0       -1.120337   -1.148811   -0.035411
      4          6           0       -2.375897   -0.524719    0.013984
      5          6           0       -2.095191    0.833579    0.033458
      6          1           0       -0.880226   -2.202848   -0.063507
      7          1           0       -3.348026   -0.992822    0.033174
      8          6           0        1.622567   -0.027493    0.054010
      9          8           0        2.308924   -1.162586    0.029413
     10          8           0        2.279525    1.117190   -0.026809
     11          1           0        0.407389    2.056905   -0.061528
     12          1           0       -2.732938    1.704062    0.073035
 ---------------------------------------------------------------------
 Rotational constants (GHZ):           5.2806742           1.3908700           1.1015899
 Standard basis: 6-31+G(d,p) (6D, 7F)
 There are   172 symmetry adapted cartesian basis functions of A   symmetry.
 There are   172 symmetry adapted basis functions of A   symmetry.
   172 basis functions,   284 primitive gaussians,   172 cartesian basis functions
    29 alpha electrons       29 beta electrons
       nuclear repulsion energy       338.4116194032 Hartrees.
 NAtoms=   12 NActive=   12 NUniq=   12 SFac= 1.00D+00 NAtFMM=   60 NAOKFM=F Big=F
 Integral buffers will be    131072 words long.
 Raffenetti 2 integral format.
 Two-electron integral symmetry is turned on.
 ------------------------------------------------------------------------------
 Polarizable Continuum Model (PCM)
 =================================
 Model                : PCM.
 Atomic radii         : SMD-Coulomb.
 Polarization charges : Total charges.
 Charge compensation  : None.
 Solution method      : Matrix inversion.
 Cavity type          : VdW (van der Waals Surface) (Alpha=1.000).
 Cavity algorithm     : GePol (No added spheres)
                        Default sphere list used, NSphG=   12.
                        Lebedev-Laikov grids with approx.  5.0 points / Ang**2.
                        Smoothing algorithm: York/Karplus (Gamma=1.0000).
                        Polarization charges: spherical gaussians, with
                                              point-specific exponents (IZeta= 3).
                        Self-potential: point-specific (ISelfS= 7).
                        Self-field    : sphere-specific E.n sum rule (ISelfD= 2).
 1st derivatives      : Analytical E(r).r(x)/FMM algorithm (CHGder, D1EAlg=3).
                        Cavity 1st derivative terms included.
 Solvent              : Water, Eps=  78.355300 Eps(inf)=   1.777849
 ------------------------------------------------------------------------------
 Spheres list:
 ISph  on   Nord     Re0    Alpha      Xe            Ye            Ze
    1   N      1    1.8900  1.000     -0.757945      0.950362     -0.005306
    2   N      2    1.8900  1.000     -0.147860     -0.235713     -0.051587
    3   C      3    1.8500  1.000     -1.120337     -1.148811     -0.035411
    4   C      4    1.8500  1.000     -2.375897     -0.524719      0.013984
    5   C      5    1.8500  1.000     -2.095191      0.833579      0.033458
    6   H      6    1.2000  1.000     -0.880226     -2.202848     -0.063507
    7   H      7    1.2000  1.000     -3.348026     -0.992822      0.033174
    8   C      8    1.8500  1.000      1.622567     -0.027493      0.054010
    9   O      9    1.5200  1.000      2.308924     -1.162586      0.029413
   10   O     10    1.5200  1.000      2.279525      1.117190     -0.026809
   11   H     11    1.2000  1.000      0.407389      2.056905     -0.061528
   12   H     12    1.2000  1.000     -2.732938      1.704062      0.073035
 ------------------------------------------------------------------------------
 ------------------------------------------------------------------------------
 Atomic radii for non-electrostatic terms: SMD-CDS.
 ------------------------------------------------------------------------------
 Nuclear repulsion after PCM non-electrostatic terms =      338.4199662322 Hartrees.
 One-electron integrals computed using PRISM.
 NBasis=   172 RedAO= T EigKep=  5.08D-05  NBF=   172
[...]
   D20        0.00124  -0.00002   0.00000  -0.00124  -0.00124   0.00000
   D21        0.00005  -0.00000   0.00000  -0.00005  -0.00005  -0.00000
   D22        3.14151   0.00000   0.00000   0.00008   0.00008   3.14159
   D23        3.14158  -0.00000   0.00000   0.00002   0.00002  -3.14159
   D24       -0.00014   0.00000   0.00000   0.00014   0.00014  -0.00000
         Item               Value     Threshold  Converged?
 Maximum Force            0.000153     0.000450     YES
 RMS     Force            0.000034     0.000300     YES
 Maximum Displacement     0.001299     0.001800     YES
 RMS     Displacement     0.000311     0.001200     YES
 Predicted change in Energy=-1.436119D-09
 Optimization completed.
    -- Stationary point found.
                           ----------------------------
                           !   Optimized Parameters   !
                           ! (Angstroms and Degrees)  !
 --------------------------                            --------------------------
 ! Name  Definition              Value          Derivative Info.                !
 --------------------------------------------------------------------------------
 ! R1    R(1,2)                  1.3407         -DE/DX =    0.0                 !
 ! R2    R(1,5)                  1.3249         -DE/DX =    0.0                 !
 ! R3    R(1,11)                 1.241          -DE/DX =   -0.0002              !
 ! R4    R(2,3)                  1.3489         -DE/DX =    0.0                 !
 ! R5    R(2,8)                  1.4589         -DE/DX =    0.0                 !
 ! R6    R(3,4)                  1.3835         -DE/DX =    0.0                 !
 ! R7    R(3,6)                  1.0802         -DE/DX =    0.0                 !
 ! R8    R(4,5)                  1.4107         -DE/DX =    0.0                 !
 ! R9    R(4,7)                  1.0791         -DE/DX =    0.0                 !
 ! R10   R(5,12)                 1.0803         -DE/DX =    0.0                 !
 ! R11   R(8,9)                  1.2154         -DE/DX =   -0.0001              !
 ! R12   R(8,10)                 1.2804         -DE/DX =    0.0                 !
 ! A1    A(2,1,5)              107.5531         -DE/DX =    0.0                 !
 ! A2    A(2,1,11)              93.5385         -DE/DX =    0.0                 !
 ! A3    A(5,1,11)             158.9084         -DE/DX =    0.0                 !
 ! A4    A(1,2,3)              111.2894         -DE/DX =    0.0                 !
 ! A5    A(1,2,8)              110.4438         -DE/DX =    0.0001              !
 ! A6    A(3,2,8)              138.2668         -DE/DX =   -0.0001              !
 ! A7    A(2,3,4)              106.3494         -DE/DX =    0.0                 !
 ! A8    A(2,3,6)              121.3747         -DE/DX =    0.0                 !
 ! A9    A(4,3,6)              132.2759         -DE/DX =    0.0                 !
 ! A10   A(3,4,5)              105.8919         -DE/DX =    0.0                 !
 ! A11   A(3,4,7)              127.0751         -DE/DX =    0.0                 !
 ! A12   A(5,4,7)              127.033          -DE/DX =    0.0                 !
 ! A13   A(1,5,4)              108.9162         -DE/DX =    0.0                 !
 ! A14   A(1,5,12)             121.0248         -DE/DX =    0.0                 !
 ! A15   A(4,5,12)             130.059          -DE/DX =    0.0                 !
 ! A16   A(2,8,9)              120.3103         -DE/DX =    0.0                 !
 ! A17   A(2,8,10)             107.6018         -DE/DX =    0.0001              !
 ! A18   A(9,8,10)             132.0879         -DE/DX =    0.0                 !
 ! D1    D(5,1,2,3)              0.0043         -DE/DX =    0.0                 !
 ! D2    D(5,1,2,8)            180.0004         -DE/DX =    0.0                 !
 ! D3    D(11,1,2,3)          -179.9879         -DE/DX =    0.0                 !
 ! D4    D(11,1,2,8)             0.0082         -DE/DX =    0.0                 !
 ! D5    D(2,1,5,4)             -0.0041         -DE/DX =    0.0                 !
 ! D6    D(2,1,5,12)          -179.9978         -DE/DX =    0.0                 !
 ! D7    D(11,1,5,4)           179.9742         -DE/DX =    0.0                 !
 ! D8    D(11,1,5,12)           -0.0195         -DE/DX =    0.0                 !
 ! D9    D(1,2,3,4)             -0.0026         -DE/DX =    0.0                 !
 ! D10   D(1,2,3,6)            179.939          -DE/DX =    0.0                 !
 ! D11   D(8,2,3,4)           -179.9971         -DE/DX =    0.0                 !
 ! D12   D(8,2,3,6)             -0.0555         -DE/DX =    0.0                 !
 ! D13   D(1,2,8,9)           -180.0054         -DE/DX =    0.0                 !
 ! D14   D(1,2,8,10)            -0.0067         -DE/DX =    0.0                 !
 ! D15   D(3,2,8,9)             -0.0108         -DE/DX =    0.0                 !
 ! D16   D(3,2,8,10)           179.9878         -DE/DX =    0.0                 !
 ! D17   D(2,3,4,5)              0.0            -DE/DX =    0.0                 !
 ! D18   D(2,3,4,7)            180.0036         -DE/DX =    0.0                 !
 ! D19   D(6,3,4,5)           -179.9326         -DE/DX =    0.0                 !
 ! D20   D(6,3,4,7)              0.071          -DE/DX =    0.0                 !
 ! D21   D(3,4,5,1)              0.0026         -DE/DX =    0.0                 !
 ! D22   D(3,4,5,12)           179.9955         -DE/DX =    0.0                 !
 ! D23   D(7,4,5,1)           -180.001          -DE/DX =    0.0                 !
 ! D24   D(7,4,5,12)            -0.0081         -DE/DX =    0.0                 !
 --------------------------------------------------------------------------------
 GradGradGradGradGradGradGradGradGradGradGradGradGradGradGradGradGradGrad


 ----------------------------------------------------------------------

 Electric dipole moment (input orientation):
 (Debye = 10**-18 statcoulomb cm , SI units = C m)
                  (au)            (Debye)         (10**-30 SI)
   Tot        0.357183D+01      0.907868D+01      0.302832D+02
   x         -0.353512D+01     -0.898539D+01     -0.299720D+02
   y         -0.509110D+00     -0.129403D+01     -0.431641D+01
   z          0.408565D-01      0.103847D+00      0.346395D+00

 Dipole polarizability, Alpha (input orientation).
 (esu units = cm**3 , SI units = C**2 m**2 J**-1)
 Alpha(0;0):
               (au)            (10**-24 esu)      (10**-40 SI)
   iso        0.876945D+02      0.129950D+02      0.144589D+02
   aniso      0.608033D+02      0.901012D+01      0.100251D+02
   xx         0.114355D+03      0.169456D+02      0.188545D+02
   yx         0.746504D+01      0.110621D+01      0.123082D+01
   yy         0.996965D+02      0.147735D+02      0.164377D+02
   zx        -0.702801D+00     -0.104144D+00     -0.115876D+00
   zy        -0.116085D+01     -0.172020D+00     -0.191399D+00
   zz         0.490325D+02      0.726587D+01      0.808437D+01

 ----------------------------------------------------------------------

 Dipole orientation:
     7          0.24141803         -1.64724456          1.54520672
     7         -0.11952336          0.54450514          0.32682645
     6         -0.43726115          2.47211197          1.96410541
     6         -0.26738162          1.43864886          4.35951503
     6          0.16199097         -1.16783625          4.00121619
     1         -0.74972551          4.38063863          1.31101735
     1         -0.42996597          2.42354528          6.13769420
     6         -0.05435889          0.15183997         -2.40118636
     8         -0.34610107          1.92271004         -3.83450200
     8          0.33418133         -2.20408260         -2.79221855
     1          0.44572135         -2.88303072         -0.43741181
     1          0.40764477         -2.65969432          5.37297202

 Electric dipole moment (dipole orientation):
 (Debye = 10**-18 statcoulomb cm , SI units = C m)
                  (au)            (Debye)         (10**-30 SI)
   Tot        0.357183D+01      0.907868D+01      0.302832D+02
   x          0.000000D+00      0.000000D+00      0.000000D+00
   y          0.000000D+00      0.000000D+00      0.000000D+00
   z          0.357183D+01      0.907868D+01      0.302832D+02

 Dipole polarizability, Alpha (dipole orientation).
 (esu units = cm**3 , SI units = C**2 m**2 J**-1)
 Alpha(0;0):
               (au)            (10**-24 esu)      (10**-40 SI)
   iso        0.876945D+02      0.129950D+02      0.144589D+02
   aniso      0.608033D+02      0.901012D+01      0.100251D+02
   xx         0.502940D+02      0.745280D+01      0.829236D+01
   yx        -0.784471D+01     -0.116247D+01     -0.129342D+01
   yy         0.966155D+02      0.143169D+02      0.159297D+02
   zx         0.819823D+00      0.121485D+00      0.135171D+00
   zy        -0.503988D+01     -0.746833D+00     -0.830964D+00
   zz         0.116174D+03      0.172152D+02      0.191545D+02

 ----------------------------------------------------------------------
 Unable to Open any file for archive entry.
 1\1\GINC-XIELAB72C\Freq\RM062X\6-31+G(d,p)\C4H4N2O2\TINKER\27-Oct-2023
 \0\\#N Geom=AllCheck Guess=TCheck SCRF=Check GenChk RM062X/6-31+G(d,p)
  Freq\\Title Card Required\\0,1\N,-0.6836800544,-0.9885426117,0.011547
 8759\N,-0.2133539526,0.2665223897,-0.0195508457\C,-1.2184323165,1.1660
 364555,-0.0306601052\C,-2.3938916699,0.4369214207,-0.0051382769\C,-2.0
 066971756,-0.9193315714,0.0209749874\H,-1.0224594167,2.2280209623,-0.0
 543102168\H,-3.4005982083,0.8255159993,-0.0052397683\C,1.2454818167,0.
 2638606743,-0.0315515721\O,1.860596194,1.3117837906,-0.0594542995\O,1.
 6306456447,-0.9569809693,-0.0081229832\H,0.4493127465,-1.4948946108,0.
 0133381028\H,-2.6109321179,-1.8145287292,0.0454116114\\Version=ES64L-G
 16RevC.01\State=1-A\HF=-414.6283847\RMSD=3.558e-09\RMSF=4.642e-05\Zero
 Point=0.0825763\Thermal=0.0882837\ETot=-414.540101\HTot=-414.5391568\G
 Tot=-414.576039\Dipole=-3.5351237,-0.50911,0.0408565\DipoleDeriv=-0.98
 18252,0.585043,-0.0062731,0.8469068,-0.5734756,0.0008629,-0.0121929,0.
 0028521,-0.2126536,-2.3500638,-0.3247465,0.0260101,-0.1284286,-0.09395
 08,0.0018068,0.0217773,0.0034823,-0.0536554,0.932757,0.2872157,-0.0140
 101,-0.2269941,0.0869674,-0.0001409,-0.0027858,-0.0040058,-0.0130358,-
 0.3128942,-0.2147144,0.0047682,-0.4023811,-0.5427164,0.0086683,0.00895
 25,0.0070334,-0.2936735,0.0649147,-0.4470645,0.0091969,0.1606618,0.654
 786,-0.015212,-0.0038874,-0.0101529,0.0136869,0.1606969,-0.020183,0.00
 11349,-0.0010482,0.1786863,0.001567,0.000637,0.0014184,0.2480026,0.090
 3145,0.0317338,0.0005874,0.0410691,0.1525563,0.0015975,0.000341,0.0016
 597,0.2423869,3.5227906,0.4320467,-0.0337206,0.5923566,3.1963398,-0.06
 18466,-0.0371702,-0.0605092,0.5849248,-1.4872007,-0.6322753,0.0213022,
 -0.820053,-1.7730184,0.0328335,0.0253649,0.0312619,-0.5779868,-1.79825
 5,0.2733947,0.0043352,-0.0778996,-1.8875758,0.029735,0.01199,0.026874,
 -0.5521876,1.9941233,0.0142451,-0.0134383,0.0287911,0.4817854,-0.00209
 14,-0.013723,-0.0019338,0.3967614,0.1646418,0.0153048,0.0001073,-0.012
 9809,0.1196159,0.00222,0.0006966,0.0020197,0.2174299\Polar=114.3545007
 ,7.4650424,99.6965359,-0.7028008,-1.1608517,49.0324895\Quadrupole=-3.1
 891274,3.2026705,-0.0135431,-1.4544763,0.0573186,-0.0553066\PG=C01 [X(
 C4H4N2O2)]\NImag=1\\0.79002252,-0.02140758,0.56760350,-0.00510368,-0.0
 0964145,0.11509783,-0.10842143,-0.02024510,0.00071593,0.77984000,-0.08
 435688,-0.29680365,0.00554581,-0.07260337,0.75252149,0.00210210,0.0049
 9102,-0.07346420,-0.00400187,-0.01338518,0.10576661,-0.04950493,0.0241
 4425,0.00001098,-0.21575707,0.13187916,-0.00153060,0.62599191,0.019005
 96,-0.09247775,0.00212403,0.10795506,-0.23795338,0.00304663,0.07327804
 ,0.91414121,0.00011874,0.00210067,0.01286811,-0.00100078,0.00281181,-0
 .05490528,-0.00558551,-0.01712267,0.13632096,-0.03902522,0.02124725,-0
 .00001336,-0.10171484,0.03696967,0.00013358,-0.30551064,-0.13448291,0.
 00487379,0.88597672,0.10249003,-0.01816772,-0.00012901,-0.04801396,0.0
 1857363,0.00023308,-0.09802668,-0.19672653,0.00358151,-0.08756028,0.60
 484765,-0.00176597,0.00054683,0.01561590,0.00197612,-0.00047379,0.0106
 9855,0.00409172,0.00390056,-0.06734018,-0.00440690,-0.00966720,0.12373
 913,-0.41242720,0.00104906,0.00285476,-0.11501714,-0.04698742,0.002083
 29,0.04870931,-0.01216283,-0.00008342,-0.13418698,0.02740676,-0.000028
 10,0.75938594,0.02627430,-0.11371799,0.00089436,-0.02367823,-0.0430762
 3,0.00140611,-0.07121722,-0.04474699,0.00174251,0.06684171,-0.30305392
 ,0.00455275,0.15205371,0.78894611,0.00231009,0.00109090,-0.06316573,0.
 00157989,0.00160352,0.01298260,0.00119873,0.00126257,0.00876136,-0.000
 88260,0.00488996,-0.06712197,-0.00838005,-0.01522960,0.14481286,-0.005
 08793,0.00340251,0.00001924,0.01047369,0.02849576,-0.00070411,-0.07161
 757,-0.06720590,0.00171017,0.00747115,-0.01941374,0.00037956,-0.004833
 28,-0.00342188,0.00015896,0.06140821,0.00185271,0.00193979,0.00007255,
 -0.00415689,-0.01384708,0.00028723,-0.05699724,-0.36358265,0.00735290,
 0.00159271,-0.00007139,0.00007513,-0.00000626,-0.00002894,0.00011111,0
 .05818703,0.37606303,0.00005234,0.00006509,0.00631541,-0.00001860,0.00
 003676,-0.00195829,0.00148771,0.00739001,-0.03434781,-0.00005430,0.000
 26614,0.00422881,0.00008893,0.00014759,0.00536732,-0.00151545,-0.00783
 356,0.02427089,0.00113017,-0.00079581,0.00005357,-0.00302295,-0.001910
 09,0.00011627,-0.00983674,0.01082789,-0.00015880,-0.33279523,0.1068548
 8,0.00019428,0.00241468,-0.00203353,0.00000968,0.00043119,-0.00014416,
 -0.00002465,0.34138072,0.00397227,-0.00620413,0.00022162,-0.00541972,-
 0.00223863,0.00022474,-0.01539493,0.01180714,-0.00014170,0.10742524,-0
 .09751477,0.00058088,0.02352337,0.00053618,-0.00024324,0.00101180,-0.0
 0006949,-0.00007142,-0.11377255,0.09095136,-0.00004814,0.00025961,0.00
 551811,0.00019040,0.00019615,0.00606849,0.00041880,-0.00035806,-0.0006
 9943,0.00016991,0.00058022,-0.02961675,-0.00054238,-0.00003023,-0.0016
 5231,-0.00004878,-0.00005846,-0.00297594,-0.00016625,-0.00052111,0.023
 42591,-0.06598303,-0.04087120,0.00139310,-0.10540464,-0.01357265,0.000
 74320,-0.04437049,0.02566943,-0.00027928,0.01937358,0.02439817,-0.0006
 6385,0.03004411,-0.00572342,-0.00011505,0.00030426,-0.00019668,-0.0000
 1343,0.00144993,0.00124199,-0.00001785,0.50486707,0.00057682,0.0016163
 8,-0.00013928,0.02139075,-0.10623774,0.00104003,0.01779727,0.00918621,
 -0.00059381,0.00496038,-0.00733112,0.00019370,-0.00536641,-0.01232595,
 0.00034422,-0.00024039,-0.00076116,-0.00002518,0.00039005,0.00037874,0
 .00003939,0.18684696,0.99264908,0.00048405,0.00019973,-0.00476938,-0.0
 0000148,0.00132076,-0.05020557,-0.00012102,-0.00065664,-0.01149729,-0.
 00023614,0.00003600,0.00355554,-0.00011796,0.00034468,0.00146779,-0.00
 001432,-0.00002240,-0.00197843,-0.00000105,0.00003273,0.00235457,-0.00
 646197,-0.01847834,0.21541837,-0.00498864,0.00943402,-0.00013675,-0.06
 010140,-0.05247548,0.00176892,0.01191753,-0.00621786,0.00003815,-0.004
 30814,-0.00558945,0.00015860,-0.00719992,-0.00238842,0.00011402,-0.000
 32392,-0.00005189,0.00000608,-0.00033613,-0.00012019,0.00000236,-0.237
 97894,-0.24470851,0.00664668,0.27673414,-0.01418691,0.00563657,0.00006
 238,-0.04277977,-0.00603337,0.00082680,0.00575647,-0.00474951,0.000062
 46,-0.00426307,-0.00297027,0.00010273,-0.00360334,0.00248476,-0.000017
 99,-0.00006904,0.00036841,-0.00000131,-0.00023609,0.00006108,-0.000006
 71,-0.25222853,-0.50150855,0.01129322,0.31425457,0.62523778,0.00037847
 ,-0.00013083,0.00322950,0.00155582,0.00090815,0.01561113,-0.00021947,0
 .00016257,0.00039362,0.00012861,0.00011197,0.00008560,0.00013936,-0.00
 002764,0.00027335,0.00000631,-0.00000203,0.00026833,0.00000520,-0.0000
 0751,-0.00033022,0.00681088,0.01122974,-0.07889484,-0.00885147,-0.0154
 7762,0.03417990,-0.10741305,0.00903925,0.00076614,-0.06062692,0.042578
 38,-0.00027889,-0.00083712,-0.00660613,0.00018840,-0.01060395,0.003922
 33,-0.00000357,0.00496489,0.01366494,-0.00032433,-0.00022597,0.0001486
 8,-0.00000147,-0.00045622,0.00089701,-0.00002468,-0.14728109,0.0941404
 4,-0.00147394,0.02985080,-0.03021458,0.00059774,0.27019693,-0.06701904
 ,-0.00216147,0.00081330,0.06145971,-0.03344289,0.00060749,-0.01147959,
 0.01370326,-0.00009102,0.00371194,0.00859984,-0.00023860,0.01324789,0.
 00422273,-0.00016546,-0.00042511,0.00017420,-0.00000125,0.00051570,0.0
 0143335,-0.00005957,0.09533602,-0.34020219,0.00494095,-0.01616369,-0.1
 2199749,0.00328319,-0.14302229,0.49548536,0.00242523,0.00019087,0.0100
 3822,-0.00069131,0.00076571,0.01783729,0.00029895,-0.00013452,0.005090
 88,-0.00000191,-0.00024010,-0.00098376,-0.00031462,-0.00016735,0.00171
 280,0.00001025,-0.00000739,-0.00011449,-0.00001691,-0.00006335,-0.0011
 4153,-0.00149938,0.00495073,-0.07742532,0.00029224,0.00339914,0.022475
 92,0.00130534,-0.00851617,0.05060781,0.01527686,0.04358418,-0.00126355
 ,-0.01532535,0.02982238,-0.00049490,0.01188959,-0.01416653,0.00021766,
 0.00308586,-0.01426866,0.00031121,-0.02034597,-0.01314473,0.00040558,0
 .00101386,-0.00024590,-0.00000018,-0.00011978,-0.00252916,0.00006438,0
 .04414538,-0.07440434,0.00125538,-0.00244770,0.02775461,-0.00055471,0.
 02233494,0.06359069,-0.00180224,-0.05911778,0.02911459,-0.05654224,0.0
 0048192,0.02195269,-0.03369848,0.00062309,-0.00102343,-0.00438670,0.00
 011540,-0.00227321,-0.00001551,0.00010034,-0.00121749,0.00305645,-0.00
 019113,0.00059987,-0.00030745,0.00001723,0.00001863,0.00031652,0.00001
 888,-0.02013355,-0.03608264,0.00094748,0.00353886,0.00323612,-0.000020
 94,0.01557885,-0.02560205,-0.00018470,-0.04605782,0.15014059,-0.000957
 36,0.00036649,-0.02385825,-0.00032315,0.00055521,0.00320662,-0.0000706
 4,0.00022559,0.00061484,0.00005585,0.00019654,0.00372083,0.00014248,-0
 .00009341,-0.00610632,-0.00001598,0.00002363,0.00071606,0.00001035,0.0
 0003916,0.00117204,0.00007468,0.00139201,-0.00027464,-0.00002722,-0.00
 021951,0.00362249,-0.00075300,-0.00057677,-0.02816570,0.00187315,-0.00
 187260,0.04711436,-0.01357812,-0.02858082,0.00070361,-0.00492195,0.002
 16055,0.00006300,-0.00107377,0.00410577,-0.00003911,0.01223771,0.00780
 060,-0.00024309,-0.15150845,-0.13722724,0.00392507,0.00098631,0.000017
 90,-0.00000698,-0.00023963,-0.00083514,0.00000222,0.00083386,-0.001382
 99,0.00004176,-0.00081768,-0.00018433,0.00000325,0.00009676,0.00024777
 ,-0.00000564,-0.00038991,-0.00009801,-0.00000917,0.15837485,0.00368373
 ,0.00927871,-0.00030622,0.00413882,0.00223634,0.00009895,0.00128390,-0
 .00421432,0.00018193,-0.01416943,-0.00616989,0.00032666,-0.14793701,-0
 .28229622,0.00654511,-0.00092092,0.00012272,0.00000990,0.00028509,0.00
 054264,-0.00006011,-0.00076654,0.00061894,0.00004184,0.00048803,0.0002
 3447,-0.00002904,-0.00012688,-0.00021265,0.00000713,0.00006528,-0.0001
 1460,-0.00003634,0.15397594,0.27997387,0.00000414,-0.00003893,-0.00342
 553,0.00001902,0.00011509,0.00836205,0.00002036,0.00015992,0.00474022,
 0.00023346,0.00014089,0.00341830,0.00415770,0.00646021,-0.03733175,0.0
 0001413,0.00000131,0.00020816,-0.00002169,-0.00005080,-0.00212293,0.00
 002894,0.00004678,0.00224920,-0.00001162,-0.00002359,-0.00091480,0.000
 00226,0.00000392,0.00006789,-0.00001178,-0.00003496,-0.00176233,-0.004
 43491,-0.00677982,0.02651152\\-0.00012533,0.00007845,0.00001260,-0.000
 04511,-0.00000935,-0.00000644,-0.00002468,0.00000437,-0.00005671,-0.00
 000791,0.00000483,0.00001455,0.00002513,-0.00005410,-0.00000306,-0.000
 02019,0.00000014,0.00004398,-0.00000809,-0.00002208,-0.00000646,0.0000
 2833,-0.00003433,-0.00001077,0.00003325,0.00010159,-0.00000090,-0.0000
 3392,-0.00001561,0.00000088,0.00016067,-0.00003501,0.00000924,0.000017
 83,-0.00001889,0.00000307\\\@
 The archive entry for this job was punched.


 IT IS A SIMPLE TASK TO MAKE THINGS COMPLEX,
 BUT A COMPLEX TASK TO MAKE THEM SIMPLE.
 Job cpu time:       0 days  0 hours 29 minutes 42.1 seconds.
 Elapsed time:       0 days  0 hours  1 minutes 15.4 seconds.
 File lengths (MBytes):  RWF=     64 Int=      0 D2E=      0 Chk=      9 Scr=      1
 Normal termination of Gaussian 16 at Fri Oct 27 05:34:51 2023.
