 Entering Gaussian System, Link 0=/opt/soft/g16b/g16/g16
 Initial command:
 /opt/soft/g16b/g16/l1.exe "/scratch/gongke2021/bizuo-PC/Gau-4235.inp" -scrdir="/scratch/gongke2021/bizuo-PC/"
 Entering Link 1 = /opt/soft/g16b/g16/l1.exe PID=      4236.
  
 Copyright (c) 1988,1990,1992,1993,1995,1998,2003,2009,2016,
            Gaussian, Inc.  All Rights Reserved.
  
 This is part of the Gaussian(R) 16 program.  It is based on
 the Gaussian(R) 09 system (copyright 2009, Gaussian, Inc.),
 the Gaussian(R) 03 system (copyright 2003, Gaussian, Inc.),
 the Gaussian(R) 98 system (copyright 1998, Gaussian, Inc.),
 the Gaussian(R) 94 system (copyright 1995, Gaussian, Inc.),
 the Gaussian 92(TM) system (copyright 1992, Gaussian, Inc.),
 the Gaussian 90(TM) system (copyright 1990, Gaussian, Inc.),
 the Gaussian 88(TM) system (copyright 1988, Gaussian, Inc.),
 the Gaussian 86(TM) system (copyright 1986, Carnegie Mellon
 University), and the Gaussian 82(TM) system (copyright 1983,
 Carnegie Mellon University). Gaussian is a federally registered
 trademark of Gaussian, Inc.
  
 This software contains proprietary and confidential information,
 including trade secrets, belonging to Gaussian, Inc.
  
 This software is provided under written license and may be
 used, copied, transmitted, or stored only in accord with that
 written license.
  
 The following legend is applicable only to US Government
 contracts under FAR:
  
                    RESTRICTED RIGHTS LEGEND
  
 Use, reproduction and disclosure by the US Government is
 subject to restrictions as set forth in subparagraphs (a)
 and (c) of the Commercial Computer Software - Restricted
 Rights clause in FAR 52.227-19.
  
 Gaussian, Inc.
 340 Quinnipiac St., Bldg. 40, Wallingford CT 06492
  
  
 ---------------------------------------------------------------
 Warning -- This program may not be used in any manner that
 competes with the business of Gaussian, Inc. or will provide
 assistance to any competitor of Gaussian, Inc.  The licensee
 of this program is prohibited from giving any competitor of
 Gaussian, Inc. access to this program.  By using this program,
 the user acknowledges that Gaussian, Inc. is engaged in the
 business of creating and licensing software in the field of
 computational chemistry and represents and warrants to the
 licensee that it is not a competitor of Gaussian, Inc. and that
 it will not use this program in any manner prohibited above.
 ---------------------------------------------------------------
  

 Cite this work as:
 Gaussian 16, Revision A.03,
 M. J. Frisch, G. W. Trucks, H. B. Schlegel, G. E. Scuseria, 
 M. A. Robb, J. R. Cheeseman, G. Scalmani, V. Barone, 
 G. A. Petersson, H. Nakatsuji, X. Li, M. Caricato, A. V. Marenich, 
 J. Bloino, B. G. Janesko, R. Gomperts, B. Mennucci, H. P. Hratchian, 
 J. V. Ortiz, A. F. Izmaylov, J. L. Sonnenberg, D. Williams-Young, 
 F. Ding, F. Lipparini, F. Egidi, J. Goings, B. Peng, A. Petrone, 
 T. Henderson, D. Ranasinghe, V. G. Zakrzewski, J. Gao, N. Rega, 
 G. Zheng, W. Liang, M. Hada, M. Ehara, K. Toyota, R. Fukuda, 
 J. Hasegawa, M. Ishida, T. Nakajima, Y. Honda, O. Kitao, H. Nakai, 
 T. Vreven, K. Throssell, J. A. Montgomery, Jr., J. E. Peralta, 
 F. Ogliaro, M. J. Bearpark, J. J. Heyd, E. N. Brothers, K. N. Kudin, 
 V. N. Staroverov, T. A. Keith, R. Kobayashi, J. Normand, 
 K. Raghavachari, A. P. Rendell, J. C. Burant, S. S. Iyengar, 
 J. Tomasi, M. Cossi, J. M. Millam, M. Klene, C. Adamo, R. Cammi, 
 J. W. Ochterski, R. L. Martin, K. Morokuma, O. Farkas, 
 J. B. Foresman, and D. J. Fox, Gaussian, Inc., Wallingford CT, 2016.
 
 ******************************************
 Gaussian 16:  ES64L-G16RevA.03 25-Dec-2016
                 5-Nov-2023 
 ******************************************
 %mem=10GB
 %nprocshared=20
 Will use up to   20 processors via shared memory.
 -----------------------------------------------------
 # opt freq 6-31+g(d,p) scrf=(smd,solvent=water) m062x
 -----------------------------------------------------
 1/18=20,19=15,26=3,38=1/1,3;
 2/9=110,12=2,17=6,18=5,40=1/2;
 3/5=1,6=6,7=111,11=2,25=1,30=1,70=32201,71=1,72=1,74=-55/1,2,3;
 4//1;
 5/5=2,38=5,53=1/2;
 6/7=2,8=2,9=2,10=2,28=1/1;
 7//1,2,3,16;
 1/18=20,19=15,26=3/3(2);
 2/9=110/2;
 99//99;
 2/9=110/2;
 3/5=1,6=6,7=111,11=2,25=1,30=1,70=32205,71=1,72=1,74=-55/1,2,3;
 4/5=5,16=3,69=1/1;
 5/5=2,38=5,53=1/2;
 7//1,2,3,16;
 1/18=20,19=15,26=3/3(-5);
 2/9=110/2;
 6/7=2,8=2,9=2,10=2,19=2,28=1/1;
 99/9=1/99;
 -------------------
 Title Card Required
 -------------------
 Symbolic Z-matrix:
 Charge = -1 Multiplicity = 2
 N                     0.68932  -1.11376  -0.00002 
 N                     0.0258    0.07109  -0.00007 
 C                     0.87542   1.14609   0. 
 C                     2.142     0.63131   0.00011 
 C                     1.96466  -0.78008  -0.0001 
 H                     0.4951    2.15677   0.00002 
 H                     3.0714    1.17988   0.00023 
 C                    -1.37598   0.11125  0. 
 O                    -1.98624   1.1554   -0.00005 
 O                    -1.96648  -1.07298   0.00008 
 H                    -1.30963  -1.7971    0.00015 
 H                     2.72242  -1.55159  -0.00013 
 

 GradGradGradGradGradGradGradGradGradGradGradGradGradGradGradGradGradGrad
 Berny optimization.
 Initialization pass.
                           ----------------------------
                           !    Initial Parameters    !
                           ! (Angstroms and Degrees)  !
 --------------------------                            --------------------------
 ! Name  Definition              Value          Derivative Info.                !
 --------------------------------------------------------------------------------
 ! R1    R(1,2)                  1.358          estimate D2E/DX2                !
 ! R2    R(1,5)                  1.3183         estimate D2E/DX2                !
 ! R3    R(2,3)                  1.3702         estimate D2E/DX2                !
 ! R4    R(2,8)                  1.4024         estimate D2E/DX2                !
 ! R5    R(3,4)                  1.3672         estimate D2E/DX2                !
 ! R6    R(3,6)                  1.0799         estimate D2E/DX2                !
 ! R7    R(4,5)                  1.4225         estimate D2E/DX2                !
 ! R8    R(4,7)                  1.0792         estimate D2E/DX2                !
 ! R9    R(5,12)                 1.0814         estimate D2E/DX2                !
 ! R10   R(8,9)                  1.2094         estimate D2E/DX2                !
 ! R11   R(8,10)                 1.3233         estimate D2E/DX2                !
 ! R12   R(10,11)                0.9776         estimate D2E/DX2                !
 ! A1    A(2,1,5)              104.5866         estimate D2E/DX2                !
 ! A2    A(1,2,3)              112.4305         estimate D2E/DX2                !
 ! A3    A(1,2,8)              120.8903         estimate D2E/DX2                !
 ! A4    A(3,2,8)              126.6792         estimate D2E/DX2                !
 ! A5    A(2,3,4)              106.2024         estimate D2E/DX2                !
 ! A6    A(2,3,6)              121.0581         estimate D2E/DX2                !
 ! A7    A(4,3,6)              132.7396         estimate D2E/DX2                !
 ! A8    A(3,4,5)              104.9564         estimate D2E/DX2                !
 ! A9    A(3,4,7)              127.331          estimate D2E/DX2                !
 ! A10   A(5,4,7)              127.7126         estimate D2E/DX2                !
 ! A11   A(1,5,4)              111.8242         estimate D2E/DX2                !
 ! A12   A(1,5,12)             119.8225         estimate D2E/DX2                !
 ! A13   A(4,5,12)             128.3534         estimate D2E/DX2                !
 ! A14   A(2,8,9)              121.9461         estimate D2E/DX2                !
 ! A15   A(2,8,10)             114.8611         estimate D2E/DX2                !
 ! A16   A(9,8,10)             123.1928         estimate D2E/DX2                !
 ! A17   A(8,10,11)            111.2866         estimate D2E/DX2                !
 ! D1    D(5,1,2,3)             -0.0081         estimate D2E/DX2                !
 ! D2    D(5,1,2,8)           -179.9996         estimate D2E/DX2                !
 ! D3    D(2,1,5,4)              0.0135         estimate D2E/DX2                !
 ! D4    D(2,1,5,12)          -179.9969         estimate D2E/DX2                !
 ! D5    D(1,2,3,4)             -0.0005         estimate D2E/DX2                !
 ! D6    D(1,2,3,6)           -179.9972         estimate D2E/DX2                !
 ! D7    D(8,2,3,4)            179.9904         estimate D2E/DX2                !
 ! D8    D(8,2,3,6)             -0.0063         estimate D2E/DX2                !
 ! D9    D(1,2,8,9)           -179.9996         estimate D2E/DX2                !
 ! D10   D(1,2,8,10)            -0.0011         estimate D2E/DX2                !
 ! D11   D(3,2,8,9)              0.0101         estimate D2E/DX2                !
 ! D12   D(3,2,8,10)          -179.9914         estimate D2E/DX2                !
 ! D13   D(2,3,4,5)              0.0083         estimate D2E/DX2                !
 ! D14   D(2,3,4,7)           -179.9975         estimate D2E/DX2                !
 ! D15   D(6,3,4,5)           -179.9956         estimate D2E/DX2                !
 ! D16   D(6,3,4,7)             -0.0013         estimate D2E/DX2                !
 ! D17   D(3,4,5,1)             -0.0141         estimate D2E/DX2                !
 ! D18   D(3,4,5,12)           179.9973         estimate D2E/DX2                !
 ! D19   D(7,4,5,1)            179.9917         estimate D2E/DX2                !
 ! D20   D(7,4,5,12)             0.0032         estimate D2E/DX2                !
 ! D21   D(2,8,10,11)            0.004          estimate D2E/DX2                !
 ! D22   D(9,8,10,11)         -179.9975         estimate D2E/DX2                !
 --------------------------------------------------------------------------------
 Trust Radius=3.00D-01 FncErr=1.00D-07 GrdErr=1.00D-06 EigMax=2.50D+02 EigMin=1.00D-04
 Number of steps in this run=     61 maximum allowed number of steps=    100.
 GradGradGradGradGradGradGradGradGradGradGradGradGradGradGradGradGradGrad

                          Input orientation:                          
 ---------------------------------------------------------------------
 Center     Atomic      Atomic             Coordinates (Angstroms)
 Number     Number       Type             X           Y           Z
 ---------------------------------------------------------------------
      1          7           0        0.689321   -1.113760   -0.000018
      2          7           0        0.025804    0.071085   -0.000069
      3          6           0        0.875416    1.146087    0.000001
      4          6           0        2.142002    0.631311    0.000114
      5          6           0        1.964658   -0.780077   -0.000095
      6          1           0        0.495095    2.156770    0.000017
      7          1           0        3.071399    1.179878    0.000231
      8          6           0       -1.375976    0.111252   -0.000004
      9          8           0       -1.986244    1.155399   -0.000054
     10          8           0       -1.966476   -1.072983    0.000084
     11          1           0       -1.309630   -1.797103    0.000153
     12          1           0        2.722418   -1.551588   -0.000127
 ---------------------------------------------------------------------
                    Distance matrix (angstroms):
                    1          2          3          4          5
     1  N    0.000000
     2  N    1.357981   0.000000
     3  C    2.267496   1.370208   0.000000
     4  C    2.270585   2.189097   1.367199   0.000000
     5  C    1.318267   2.117459   2.212816   1.422486   0.000000
     6  H    3.276292   2.137830   1.079872   2.244845   3.284005
     7  H    3.306822   3.241153   2.196243   1.079215   2.250844
     8  C    2.401272   1.402355   2.477832   3.556210   3.457500
     9  O    3.508238   2.285623   2.861675   4.161380   4.399511
    10  O    2.656110   2.297405   3.605638   4.447944   3.942031
    11  H    2.112525   2.296413   3.665623   4.220303   3.428601
    12  H    2.079706   3.147188   3.269383   2.258745   1.081402
                    6          7          8          9         10
     6  H    0.000000
     7  H    2.755297   0.000000
     8  C    2.772192   4.573960   0.000000
     9  O    2.675778   5.057702   1.209409   0.000000
    10  O    4.060866   5.518656   1.323292   2.228470   0.000000
    11  H    4.346279   5.296776   1.909508   3.029039   0.977648
    12  H    4.325839   2.753669   4.422880   5.431324   4.713257
                   11         12
    11  H    0.000000
    12  H    4.039516   0.000000
 Stoichiometry    C4H4N2O2(1-,2)
 Framework group  C1[X(C4H4N2O2)]
 Deg. of freedom    30
 Full point group                 C1      NOp   1
 Largest Abelian subgroup         C1      NOp   1
 Largest concise Abelian subgroup C1      NOp   1
                         Standard orientation:                         
 ---------------------------------------------------------------------
 Center     Atomic      Atomic             Coordinates (Angstroms)
 Number     Number       Type             X           Y           Z
 ---------------------------------------------------------------------
      1          7           0        0.689321   -1.113760   -0.000018
      2          7           0        0.025804    0.071085   -0.000069
      3          6           0        0.875416    1.146087    0.000001
      4          6           0        2.142002    0.631311    0.000114
      5          6           0        1.964658   -0.780077   -0.000095
      6          1           0        0.495095    2.156770    0.000017
      7          1           0        3.071399    1.179878    0.000231
      8          6           0       -1.375976    0.111252   -0.000004
      9          8           0       -1.986244    1.155399   -0.000054
     10          8           0       -1.966476   -1.072983    0.000084
     11          1           0       -1.309630   -1.797103    0.000153
     12          1           0        2.722418   -1.551588   -0.000127
 ---------------------------------------------------------------------
 Rotational constants (GHZ):           5.2136407           1.7814507           1.3277659
 Standard basis: 6-31+G(d,p) (6D, 7F)
 There are   172 symmetry adapted cartesian basis functions of A   symmetry.
 There are   172 symmetry adapted basis functions of A   symmetry.
   172 basis functions,   284 primitive gaussians,   172 cartesian basis functions
    30 alpha electrons       29 beta electrons
       nuclear repulsion energy       359.9653807768 Hartrees.
 NAtoms=   12 NActive=   12 NUniq=   12 SFac= 1.00D+00 NAtFMM=   60 NAOKFM=F Big=F
 Integral buffers will be    131072 words long.
 Raffenetti 2 integral format.
 Two-electron integral symmetry is turned on.
 ------------------------------------------------------------------------------
 Polarizable Continuum Model (PCM)
 =================================
 Model                : PCM.
 Atomic radii         : SMD-Coulomb.
 Polarization charges : Total charges.
 Charge compensation  : None.
 Solution method      : On-the-fly selection.
 Cavity type          : VdW (van der Waals Surface) (Alpha=1.000).
 Cavity algorithm     : GePol (No added spheres)
                        Default sphere list used, NSphG=   12.
                        Lebedev-Laikov grids with approx.  5.0 points / Ang**2.
                        Smoothing algorithm: York/Karplus (Gamma=1.0000).
                        Polarization charges: spherical gaussians, with
                                              point-specific exponents (IZeta= 3).
                        Self-potential: point-specific (ISelfS= 7).
                        Self-field    : sphere-specific E.n sum rule (ISelfD= 2).
 1st derivatives      : Analytical E(r).r(x)/FMM algorithm (CHGder, D1EAlg=3).
                        Cavity 1st derivative terms included.
 Solvent              : Water, Eps=  78.355300 Eps(inf)=   1.777849
 ------------------------------------------------------------------------------
 Spheres list:
 ISph  on   Nord     Re0    Alpha      Xe            Ye            Ze
    1   N      1    1.8900  1.000      0.689321     -1.113760     -0.000018
    2   N      2    1.8900  1.000      0.025804      0.071085     -0.000069
    3   C      3    1.8500  1.000      0.875416      1.146087      0.000001
    4   C      4    1.8500  1.000      2.142002      0.631311      0.000114
    5   C      5    1.8500  1.000      1.964658     -0.780077     -0.000095
    6   H      6    1.2000  1.000      0.495095      2.156770      0.000017
    7   H      7    1.2000  1.000      3.071399      1.179878      0.000231
    8   C      8    1.8500  1.000     -1.375976      0.111252     -0.000004
    9   O      9    1.5200  1.000     -1.986244      1.155399     -0.000054
   10   O     10    1.5200  1.000     -1.966476     -1.072983      0.000084
   11   H     11    1.2000  1.000     -1.309630     -1.797103      0.000153
   12   H     12    1.2000  1.000      2.722418     -1.551588     -0.000127
 ------------------------------------------------------------------------------
 ------------------------------------------------------------------------------
 Atomic radii for non-electrostatic terms: SMD-CDS.
 ------------------------------------------------------------------------------
 Nuclear repulsion after PCM non-electrostatic terms =      359.9729742372 Hartrees.
 One-electron integrals computed using PRISM.
 NBasis=   172 RedAO= T EigKep=  3.84D-05  NBF=   172
 NBsUse=   172 1.00D-06 EigRej= -1.00D+00 NBFU=   172
 ExpMin= 4.38D-02 ExpMax= 5.48D+03 ExpMxC= 8.25D+02 IAcc=3 IRadAn=         5 AccDes= 0.00D+00
 Harris functional with IExCor= 1009 and IRadAn=       5 diagonalized for initial guess.
 HarFok:  IExCor= 1009 AccDes= 0.00D+00 IRadAn=         5 IDoV= 1 UseB2=F ITyADJ=14
 ICtDFT=  3500011 ScaDFX=  1.000000  1.000000  1.000000  1.000000
 FoFCou: FMM=F IPFlag=           0 FMFlag=      100000 FMFlg1=           0
         NFxFlg=           0 DoJE=T BraDBF=F KetDBF=T FulRan=T
         wScrn=  0.000000 ICntrl=       500 IOpCl=  0 I1Cent=   200000004 NGrid=           0
         NMat0=    1 NMatS0=      1 NMatT0=    0 NMatD0=    1 NMtDS0=    0 NMtDT0=    0
 Petite list used in FoFCou.
 Initial guess <Sx>= 0.0000 <Sy>= 0.0000 <Sz>= 0.5000 <S**2>= 0.7500 S= 0.5000
 Keep R1 and R2 ints in memory in canonical form, NReq=241382590.
 Requested convergence on RMS density matrix=1.00D-08 within 128 cycles.
 Requested convergence on MAX density matrix=1.00D-06.
 Requested convergence on             energy=1.00D-06.
 No special actions if energy rises.
 Inv3:  Mode=1 IEnd=     3288627.
 Iteration    1 A*A^-1 deviation from unit magnitude is 3.77D-15 for    706.
 Iteration    1 A*A^-1 deviation from orthogonality  is 2.05D-15 for   1041    870.
 Iteration    1 A^-1*A deviation from unit magnitude is 4.00D-15 for    706.
 Iteration    1 A^-1*A deviation from orthogonality  is 1.35D-13 for    744    715.
 Error on total polarization charges =  0.06127
 SCF Done:  E(UM062X) =  -414.709704294     A.U. after   19 cycles
            NFock= 19  Conv=0.23D-08     -V/T= 2.0075
 <Sx>= 0.0000 <Sy>= 0.0000 <Sz>= 0.5000 <S**2>= 0.7608 S= 0.5054
 <L.S>= 0.000000000000E+00
 SMD-CDS (non-electrostatic) energy       (kcal/mol) =       4.76
 (included in total energy above)
 Annihilation of the first spin contaminant:
 S**2 before annihilation     0.7608,   after     0.7501

 **********************************************************************

            Population analysis using the SCF density.

 **********************************************************************

 Orbital symmetries:
 Alpha Orbitals:
       Occupied  (A) (A) (A) (A) (A) (A) (A) (A) (A) (A) (A) (A)
                 (A) (A) (A) (A) (A) (A) (A) (A) (A) (A) (A) (A)
                 (A) (A) (A) (A) (A) (A)
       Virtual   (A) (A) (A) (A) (A) (A) (A) (A) (A) (A) (A) (A)
                 (A) (A) (A) (A) (A) (A) (A) (A) (A) (A) (A) (A)
                 (A) (A) (A) (A) (A) (A) (A) (A) (A) (A) (A) (A)
                 (A) (A) (A) (A) (A) (A) (A) (A) (A) (A) (A) (A)
                 (A) (A) (A) (A) (A) (A) (A) (A) (A) (A) (A) (A)
                 (A) (A) (A) (A) (A) (A) (A) (A) (A) (A) (A) (A)
                 (A) (A) (A) (A) (A) (A) (A) (A) (A) (A) (A) (A)
                 (A) (A) (A) (A) (A) (A) (A) (A) (A) (A) (A) (A)
                 (A) (A) (A) (A) (A) (A) (A) (A) (A) (A) (A) (A)
                 (A) (A) (A) (A) (A) (A) (A) (A) (A) (A) (A) (A)
                 (A) (A) (A) (A) (A) (A) (A) (A) (A) (A) (A) (A)
                 (A) (A) (A) (A) (A) (A) (A) (A) (A) (A)
 Beta  Orbitals:
       Occupied  (A) (A) (A) (A) (A) (A) (A) (A) (A) (A) (A) (A)
                 (A) (A) (A) (A) (A) (A) (A) (A) (A) (A) (A) (A)
                 (A) (A) (A) (A) (A)
       Virtual   (A) (A) (A) (A) (A) (A) (A) (A) (A) (A) (A) (A)
                 (A) (A) (A) (A) (A) (A) (A) (A) (A) (A) (A) (A)
                 (A) (A) (A) (A) (A) (A) (A) (A) (A) (A) (A) (A)
                 (A) (A) (A) (A) (A) (A) (A) (A) (A) (A) (A) (A)
                 (A) (A) (A) (A) (A) (A) (A) (A) (A) (A) (A) (A)
                 (A) (A) (A) (A) (A) (A) (A) (A) (A) (A) (A) (A)
                 (A) (A) (A) (A) (A) (A) (A) (A) (A) (A) (A) (A)
                 (A) (A) (A) (A) (A) (A) (A) (A) (A) (A) (A) (A)
                 (A) (A) (A) (A) (A) (A) (A) (A) (A) (A) (A) (A)
                 (A) (A) (A) (A) (A) (A) (A) (A) (A) (A) (A) (A)
                 (A) (A) (A) (A) (A) (A) (A) (A) (A) (A) (A) (A)
                 (A) (A) (A) (A) (A) (A) (A) (A) (A) (A) (A)
 The electronic state is 2-A.
 Alpha  occ. eigenvalues --  -19.67532 -19.61026 -14.82411 -14.75375 -10.66964
 Alpha  occ. eigenvalues --  -10.54468 -10.54437 -10.52250  -1.23307  -1.14040
 Alpha  occ. eigenvalues --   -1.13172  -0.91606  -0.86152  -0.72455  -0.67821
 Alpha  occ. eigenvalues --   -0.66232  -0.60605  -0.55911  -0.53870  -0.51829
 Alpha  occ. eigenvalues --   -0.48034  -0.48022  -0.45715  -0.44029  -0.40096
 Alpha  occ. eigenvalues --   -0.36449  -0.35618  -0.31733  -0.30458  -0.10665
 Alpha virt. eigenvalues --    0.02765   0.04728   0.05030   0.05740   0.06739
 Alpha virt. eigenvalues --    0.07169   0.07881   0.08790   0.10874   0.11008
 Alpha virt. eigenvalues --    0.11041   0.12342   0.13343   0.13850   0.16236
 Alpha virt. eigenvalues --    0.17511   0.18423   0.18640   0.21417   0.21760
 Alpha virt. eigenvalues --    0.23215   0.23406   0.24324   0.24995   0.26493
 Alpha virt. eigenvalues --    0.26951   0.27365   0.27636   0.28556   0.29424
 Alpha virt. eigenvalues --    0.29749   0.31292   0.31977   0.32412   0.33719
 Alpha virt. eigenvalues --    0.36468   0.36723   0.38373   0.40660   0.41206
 Alpha virt. eigenvalues --    0.43436   0.47275   0.50337   0.51661   0.55008
 Alpha virt. eigenvalues --    0.67204   0.74066   0.74864   0.76865   0.77770
 Alpha virt. eigenvalues --    0.80258   0.81559   0.85700   0.87787   0.92559
 Alpha virt. eigenvalues --    0.94919   0.96075   0.98339   1.01226   1.01741
 Alpha virt. eigenvalues --    1.03836   1.05537   1.07230   1.14544   1.16735
 Alpha virt. eigenvalues --    1.17591   1.22922   1.23600   1.25200   1.27314
 Alpha virt. eigenvalues --    1.28109   1.30647   1.33574   1.34792   1.37553
 Alpha virt. eigenvalues --    1.39270   1.41084   1.42220   1.42868   1.45169
 Alpha virt. eigenvalues --    1.46018   1.50507   1.55202   1.56182   1.60247
 Alpha virt. eigenvalues --    1.61258   1.64285   1.67794   1.82486   1.83676
 Alpha virt. eigenvalues --    1.88832   1.92176   1.94572   1.96512   2.00398
 Alpha virt. eigenvalues --    2.00561   2.01847   2.08591   2.09753   2.13357
 Alpha virt. eigenvalues --    2.18232   2.20021   2.27328   2.27656   2.32949
 Alpha virt. eigenvalues --    2.36071   2.43193   2.44299   2.44609   2.47701
 Alpha virt. eigenvalues --    2.50810   2.54204   2.57392   2.58572   2.61749
 Alpha virt. eigenvalues --    2.63721   2.71857   2.72509   2.75093   2.76501
 Alpha virt. eigenvalues --    2.82564   2.86899   2.93196   2.95316   2.99330
 Alpha virt. eigenvalues --    3.05406   3.15515   3.17763   3.27164   3.30015
 Alpha virt. eigenvalues --    3.40143   3.52100   3.59218   3.83307   4.13909
 Alpha virt. eigenvalues --    4.28286   4.32860   4.44629   4.51986   4.59972
 Alpha virt. eigenvalues --    4.72350   4.82122
  Beta  occ. eigenvalues --  -19.67447 -19.60775 -14.82486 -14.75047 -10.66706
  Beta  occ. eigenvalues --  -10.54366 -10.54223 -10.52273  -1.22779  -1.13616
  Beta  occ. eigenvalues --   -1.12483  -0.90901  -0.85516  -0.71653  -0.67399
  Beta  occ. eigenvalues --   -0.65905  -0.59865  -0.54332  -0.53190  -0.51505
  Beta  occ. eigenvalues --   -0.47619  -0.46743  -0.45461  -0.43636  -0.37985
  Beta  occ. eigenvalues --   -0.36089  -0.34837  -0.29955  -0.28126
  Beta virt. eigenvalues --    0.02047   0.02889   0.04109   0.04413   0.04857
  Beta virt. eigenvalues --    0.06084   0.06561   0.07332   0.09070   0.09719
  Beta virt. eigenvalues --    0.10337   0.10828   0.11452   0.13134   0.14216
  Beta virt. eigenvalues --    0.14843   0.17215   0.17805   0.18377   0.20827
  Beta virt. eigenvalues --    0.21283   0.23074   0.23198   0.23643   0.24802
  Beta virt. eigenvalues --    0.26514   0.26639   0.26779   0.27267   0.28388
  Beta virt. eigenvalues --    0.29360   0.29401   0.31265   0.31851   0.32518
  Beta virt. eigenvalues --    0.33334   0.35930   0.36764   0.38075   0.39908
  Beta virt. eigenvalues --    0.40899   0.43526   0.46829   0.50620   0.52020
  Beta virt. eigenvalues --    0.55201   0.67525   0.74813   0.75192   0.77882
  Beta virt. eigenvalues --    0.78019   0.81133   0.82762   0.85585   0.88308
  Beta virt. eigenvalues --    0.92711   0.95224   0.96303   0.98455   1.01402
  Beta virt. eigenvalues --    1.02128   1.05101   1.05683   1.07444   1.14480
  Beta virt. eigenvalues --    1.17294   1.17999   1.23451   1.24180   1.25409
  Beta virt. eigenvalues --    1.27785   1.29228   1.30689   1.33776   1.35496
  Beta virt. eigenvalues --    1.37558   1.40160   1.41083   1.42883   1.43583
  Beta virt. eigenvalues --    1.45296   1.46933   1.51761   1.55255   1.57310
  Beta virt. eigenvalues --    1.60386   1.61509   1.64480   1.68100   1.82659
  Beta virt. eigenvalues --    1.84196   1.89023   1.92416   1.94992   1.97033
  Beta virt. eigenvalues --    2.00822   2.01537   2.02196   2.09100   2.10463
  Beta virt. eigenvalues --    2.13975   2.18732   2.20607   2.27977   2.28782
  Beta virt. eigenvalues --    2.33757   2.36649   2.43800   2.44827   2.45429
  Beta virt. eigenvalues --    2.48532   2.51206   2.54718   2.57938   2.59822
  Beta virt. eigenvalues --    2.62291   2.64364   2.72277   2.73459   2.75755
  Beta virt. eigenvalues --    2.77490   2.83871   2.87430   2.93758   2.96123
  Beta virt. eigenvalues --    2.99838   3.05973   3.16409   3.18207   3.27783
  Beta virt. eigenvalues --    3.30640   3.41002   3.52954   3.59476   3.84150
  Beta virt. eigenvalues --    4.14100   4.28660   4.33082   4.45950   4.52968
  Beta virt. eigenvalues --    4.61421   4.72818   4.83473
          Condensed to atoms (all electrons):
               1          2          3          4          5          6
     1  N    7.454978   0.020324  -0.019613  -0.160312   0.204200   0.017858
     2  N    0.020324   7.070068   0.230927  -0.127356   0.054001  -0.049060
     3  C   -0.019613   0.230927   5.823524   0.205616  -0.152975   0.413902
     4  C   -0.160312  -0.127356   0.205616   5.418743   0.480526  -0.043336
     5  C    0.204200   0.054001  -0.152975   0.480526   5.351577  -0.000957
     6  H    0.017858  -0.049060   0.413902  -0.043336  -0.000957   0.466007
     7  H    0.013405  -0.006917  -0.001534   0.352927  -0.022149  -0.000327
     8  C   -0.071026   0.321007  -0.206757  -0.011603   0.006657  -0.004029
     9  O    0.034376  -0.199468  -0.014097   0.027146  -0.006424  -0.002439
    10  O   -0.025597  -0.147435   0.047855   0.000607  -0.004703  -0.000083
    11  H    0.044704  -0.021124  -0.006641   0.001160   0.003090   0.000003
    12  H   -0.061844   0.010535   0.014579  -0.053106   0.412114  -0.000088
               7          8          9         10         11         12
     1  N    0.013405  -0.071026   0.034376  -0.025597   0.044704  -0.061844
     2  N   -0.006917   0.321007  -0.199468  -0.147435  -0.021124   0.010535
     3  C   -0.001534  -0.206757  -0.014097   0.047855  -0.006641   0.014579
     4  C    0.352927  -0.011603   0.027146   0.000607   0.001160  -0.053106
     5  C   -0.022149   0.006657  -0.006424  -0.004703   0.003090   0.412114
     6  H   -0.000327  -0.004029  -0.002439  -0.000083   0.000003  -0.000088
     7  H    0.483235  -0.001756  -0.000152   0.000063  -0.000002  -0.000372
     8  C   -0.001756   4.746552   0.367995   0.142660  -0.000750   0.000407
     9  O   -0.000152   0.367995   8.614454  -0.090324   0.008699   0.000036
    10  O    0.000063   0.142660  -0.090324   8.454740   0.240437   0.000094
    11  H   -0.000002  -0.000750   0.008699   0.240437   0.285413  -0.000038
    12  H   -0.000372   0.000407   0.000036   0.000094  -0.000038   0.503683
          Atomic-Atomic Spin Densities.
               1          2          3          4          5          6
     1  N    0.520639  -0.141770   0.173050  -0.076402  -0.212453  -0.000299
     2  N   -0.141770   0.030641  -0.208738   0.069428   0.075214   0.003156
     3  C    0.173050  -0.208738   0.773574  -0.201742  -0.152212  -0.001580
     4  C   -0.076402   0.069428  -0.201742   0.041467   0.152000  -0.003139
     5  C   -0.212453   0.075214  -0.152212   0.152000   0.254878   0.000948
     6  H   -0.000299   0.003156  -0.001580  -0.003139   0.000948  -0.017160
     7  H   -0.001485   0.001090  -0.004764  -0.001790   0.007446   0.000009
     8  C   -0.069148   0.155202  -0.102000   0.020244   0.021022   0.000908
     9  O    0.014216  -0.041059   0.048159  -0.011535  -0.005696   0.000487
    10  O    0.022017  -0.025720   0.016952  -0.004968  -0.004896   0.000134
    11  H    0.000527  -0.002006   0.000189   0.000236  -0.000573  -0.000001
    12  H    0.000650  -0.000184  -0.003291   0.008290  -0.005021   0.000001
               7          8          9         10         11         12
     1  N   -0.001485  -0.069148   0.014216   0.022017   0.000527   0.000650
     2  N    0.001090   0.155202  -0.041059  -0.025720  -0.002006  -0.000184
     3  C   -0.004764  -0.102000   0.048159   0.016952   0.000189  -0.003291
     4  C   -0.001790   0.020244  -0.011535  -0.004968   0.000236   0.008290
     5  C    0.007446   0.021022  -0.005696  -0.004896  -0.000573  -0.005021
     6  H    0.000009   0.000908   0.000487   0.000134  -0.000001   0.000001
     7  H   -0.001002  -0.000148   0.000015   0.000002   0.000000  -0.000016
     8  C   -0.000148   0.497136  -0.157074  -0.084262   0.000311   0.000127
     9  O    0.000015  -0.157074   0.245749   0.022966  -0.000180  -0.000003
    10  O    0.000002  -0.084262   0.022966   0.079077   0.000772   0.000005
    11  H    0.000000   0.000311  -0.000180   0.000772  -0.001035   0.000004
    12  H   -0.000016   0.000127  -0.000003   0.000005   0.000004  -0.007206
 Mulliken charges and spin densities:
               1          2
     1  N   -0.451453   0.229542
     2  N   -0.155501  -0.084745
     3  C   -0.334785   0.337596
     4  C   -0.091012  -0.007911
     5  C   -0.324956   0.130656
     6  H    0.202549  -0.016536
     7  H    0.183580  -0.000644
     8  C    0.710643   0.282317
     9  O   -0.739802   0.116044
    10  O   -0.618313   0.022080
    11  H    0.445050  -0.001755
    12  H    0.174001  -0.006644
 Sum of Mulliken charges =  -1.00000   1.00000
 Mulliken charges and spin densities with hydrogens summed into heavy atoms:
               1          2
     1  N   -0.451453   0.229542
     2  N   -0.155501  -0.084745
     3  C   -0.132236   0.321060
     4  C    0.092568  -0.008555
     5  C   -0.150955   0.124012
     8  C    0.710643   0.282317
     9  O   -0.739802   0.116044
    10  O   -0.173263   0.020325
 Electronic spatial extent (au):  <R**2>=            862.1021
 Charge=             -1.0000 electrons
 Dipole moment (field-independent basis, Debye):
    X=              4.4034    Y=             -2.0005    Z=              0.0004  Tot=              4.8365
 Quadrupole moment (field-independent basis, Debye-Ang):
   XX=            -66.8075   YY=            -52.9518   ZZ=            -52.4171
   XY=              6.9140   XZ=              0.0001   YZ=              0.0002
 Traceless Quadrupole moment (field-independent basis, Debye-Ang):
   XX=             -9.4154   YY=              4.4403   ZZ=              4.9751
   XY=              6.9140   XZ=              0.0001   YZ=              0.0002
 Octapole moment (field-independent basis, Debye-Ang**2):
  XXX=             31.2129  YYY=             -9.5159  ZZZ=              0.0002  XYY=              4.6631
  XXY=            -12.6502  XXZ=              0.0017  XZZ=            -11.7180  YZZ=             -2.4008
  YYZ=              0.0016  XYZ=              0.0012
 Hexadecapole moment (field-independent basis, Debye-Ang**3):
 XXXX=           -878.0280 YYYY=           -304.5731 ZZZZ=            -64.5696 XXXY=             21.1578
 XXXZ=              0.0051 YYYX=             27.5993 YYYZ=             -0.0014 ZZZX=             -0.0001
 ZZZY=             -0.0011 XXYY=           -198.1253 XXZZ=           -161.5971 YYZZ=            -71.8745
 XXYZ=              0.0048 YYXZ=             -0.0009 ZZXY=              0.8467
 N-N= 3.599729742372D+02 E-N=-1.700622052459D+03  KE= 4.116366380508D+02
                          Isotropic Fermi Contact Couplings
        Atom                 a.u.       MegaHertz       Gauss      10(-4) cm-1
     1  N(14)              0.05594      18.07412       6.44930       6.02888
     2  N(14)             -0.03635     -11.74639      -4.19141      -3.91818
     3  C(13)              0.04620      51.94116      18.53390      17.32571
     4  C(13)             -0.01069     -12.01706      -4.28799      -4.00846
     5  C(13)              0.01239      13.93142       4.97108       4.64702
     6  H(1)              -0.00523     -23.36540      -8.33736      -7.79386
     7  H(1)              -0.00030      -1.32850      -0.47404      -0.44314
     8  C(13)              0.04935      55.48414      19.79812      18.50752
     9  O(17)              0.02835     -17.18515      -6.13209      -5.73235
    10  O(17)              0.00540      -3.27043      -1.16697      -1.09090
    11  H(1)              -0.00072      -3.20028      -1.14194      -1.06750
    12  H(1)              -0.00210      -9.38347      -3.34826      -3.12999
 --------------------------------------------------------
       Center         ----  Spin Dipole Couplings  ----
                      3XX-RR        3YY-RR        3ZZ-RR
 --------------------------------------------------------
     1   Atom       -0.252803     -0.246025      0.498828
     2   Atom        0.018306      0.005741     -0.024047
     3   Atom       -0.156413     -0.150858      0.307271
     4   Atom        0.001205     -0.000350     -0.000855
     5   Atom       -0.050840     -0.057023      0.107863
     6   Atom       -0.017971      0.018477     -0.000506
     7   Atom        0.002661      0.000886     -0.003547
     8   Atom       -0.176288     -0.186873      0.363161
     9   Atom       -0.237226     -0.252243      0.489469
    10   Atom       -0.092270     -0.096901      0.189171
    11   Atom        0.000329      0.007063     -0.007392
    12   Atom        0.000356      0.002222     -0.002578
 --------------------------------------------------------
                        XY            XZ            YZ
 --------------------------------------------------------
     1   Atom       -0.002976      0.000026      0.000034
     2   Atom       -0.004288      0.000008     -0.000020
     3   Atom       -0.001318     -0.000044     -0.000011
     4   Atom        0.000367      0.000003     -0.000016
     5   Atom        0.000634     -0.000006     -0.000029
     6   Atom       -0.012818     -0.000003      0.000001
     7   Atom        0.003962      0.000001      0.000000
     8   Atom       -0.004487      0.000046      0.000030
     9   Atom        0.010044      0.000020      0.000055
    10   Atom       -0.008772      0.000018      0.000042
    11   Atom       -0.002125      0.000000     -0.000001
    12   Atom       -0.012034     -0.000001     -0.000001
 --------------------------------------------------------


 ---------------------------------------------------------------------------------
              Anisotropic Spin Dipole Couplings in Principal Axis System
 ---------------------------------------------------------------------------------

       Atom             a.u.   MegaHertz   Gauss  10(-4) cm-1        Axes

              Baa    -0.2539    -9.793    -3.494    -3.267  0.9358  0.3526 -0.0000
     1 N(14)  Bbb    -0.2449    -9.445    -3.370    -3.151 -0.3526  0.9358 -0.0000
              Bcc     0.4988    19.239     6.865     6.417  0.0000  0.0000  1.0000
 
              Baa    -0.0240    -0.927    -0.331    -0.309 -0.0001  0.0007  1.0000
     2 N(14)  Bbb     0.0044     0.170     0.061     0.057  0.2950  0.9555 -0.0006
              Bcc     0.0196     0.757     0.270     0.253  0.9555 -0.2950  0.0003
 
              Baa    -0.1567   -21.029    -7.504    -7.015  0.9756  0.2197  0.0001
     3 C(13)  Bbb    -0.1506   -20.204    -7.209    -6.739 -0.2197  0.9756  0.0000
              Bcc     0.3073    41.233    14.713    13.754 -0.0001 -0.0000  1.0000
 
              Baa    -0.0009    -0.115    -0.041    -0.038 -0.0080  0.0371  0.9993
     4 C(13)  Bbb    -0.0004    -0.058    -0.021    -0.019 -0.2186  0.9751 -0.0380
              Bcc     0.0013     0.173     0.062     0.058  0.9758  0.2188 -0.0003
 
              Baa    -0.0571    -7.661    -2.733    -2.555 -0.1010  0.9949  0.0002
     5 C(13)  Bbb    -0.0508    -6.814    -2.431    -2.273  0.9949  0.1010  0.0001
              Bcc     0.1079    14.474     5.165     4.828 -0.0000 -0.0002  1.0000
 
              Baa    -0.0220   -11.753    -4.194    -3.920  0.9534  0.3017  0.0001
     6 H(1)   Bbb    -0.0005    -0.270    -0.096    -0.090 -0.0001 -0.0001  1.0000
              Bcc     0.0225    12.023     4.290     4.010 -0.3017  0.9534  0.0001
 
              Baa    -0.0035    -1.892    -0.675    -0.631 -0.0004  0.0004  1.0000
     7 H(1)   Bbb    -0.0023    -1.220    -0.435    -0.407 -0.6251  0.7805 -0.0006
              Bcc     0.0058     3.113     1.111     1.038  0.7805  0.6251  0.0001
 
              Baa    -0.1885   -25.297    -9.027    -8.438  0.3444  0.9388 -0.0001
     8 C(13)  Bbb    -0.1746   -23.435    -8.362    -7.817  0.9388 -0.3444 -0.0001
              Bcc     0.3632    48.733    17.389    16.255  0.0001  0.0001  1.0000
 
              Baa    -0.2573    18.616     6.643     6.210 -0.4479  0.8941 -0.0001
     9 O(17)  Bbb    -0.2322    16.801     5.995     5.604  0.8941  0.4479 -0.0001
              Bcc     0.4895   -35.418   -12.638   -11.814  0.0000  0.0001  1.0000
 
              Baa    -0.1037     7.501     2.676     2.502  0.6102  0.7922 -0.0002
    10 O(17)  Bbb    -0.0855     6.188     2.208     2.064  0.7922 -0.6102  0.0000
              Bcc     0.1892   -13.688    -4.884    -4.566  0.0001  0.0001  1.0000
 
              Baa    -0.0074    -3.944    -1.407    -1.316 -0.0000  0.0001  1.0000
    11 H(1)   Bbb    -0.0003    -0.152    -0.054    -0.051  0.9606  0.2778  0.0000
              Bcc     0.0077     4.096     1.462     1.366 -0.2778  0.9606 -0.0001
 
              Baa    -0.0108    -5.752    -2.053    -1.919  0.7339  0.6792  0.0002
    12 H(1)   Bbb    -0.0026    -1.375    -0.491    -0.459 -0.0001 -0.0001  1.0000
              Bcc     0.0134     7.128     2.543     2.378 -0.6792  0.7339  0.0000
 

 ---------------------------------------------------------------------------------

 D1PCM: PCM CHGder 1st derivatives, ID1Alg=3 FixD1E=F DoIter=F DoCFld=F I1PDM=0.
 Calling FoFJK, ICntrl=      2127 FMM=F ISym2X=0 I1Cent= 0 IOpClX= 1 NMat=1 NMatS=1 NMatT=0.
 ***** Axes restored to original set *****
 -------------------------------------------------------------------
 Center     Atomic                   Forces (Hartrees/Bohr)
 Number     Number              X              Y              Z
 -------------------------------------------------------------------
      1        7          -0.026954218   -0.025087704   -0.000018544
      2        7          -0.061619105   -0.001617100    0.000007982
      3        6          -0.013479635    0.029402261    0.000008196
      4        6           0.024052116   -0.029138482   -0.000020579
      5        6           0.043699765    0.024208922    0.000027271
      6        1           0.000411605   -0.001133076    0.000001210
      7        1           0.001207991   -0.000032136   -0.000003636
      8        6           0.087667633   -0.025042341   -0.000004257
      9        8          -0.038932444    0.057659363   -0.000000598
     10        8          -0.017732154   -0.034267132    0.000001550
     11        1           0.000624273    0.004794707   -0.000000675
     12        1           0.001054174    0.000252717    0.000002079
 -------------------------------------------------------------------
 Cartesian Forces:  Max     0.087667633 RMS     0.026243596

 GradGradGradGradGradGradGradGradGradGradGradGradGradGradGradGradGradGrad
 Berny optimization.
 FormGI is forming the generalized inverse of G from B-inverse, IUseBI=4.
 Internal  Forces:  Max     0.069425114 RMS     0.014751605
 Search for a local minimum.
 Step number   1 out of a maximum of   61
 All quantities printed in internal units (Hartrees-Bohrs-Radians)
 Mixed Optimization -- RFO/linear search
 Second derivative matrix not updated -- first step.
 ITU=  0
     Eigenvalues ---    0.01661   0.01889   0.01995   0.02016   0.02064
     Eigenvalues ---    0.02187   0.02304   0.02364   0.02706   0.16000
     Eigenvalues ---    0.16000   0.16000   0.16000   0.22205   0.24046
     Eigenvalues ---    0.25000   0.25000   0.25000   0.35826   0.36010
     Eigenvalues ---    0.36089   0.39277   0.45232   0.47287   0.48546
     Eigenvalues ---    0.51844   0.52427   0.59930   0.61118   1.00234
 RFO step:  Lambda=-1.65088198D-02 EMin= 1.66062347D-02
 Linear search not attempted -- first point.
 Iteration  1 RMS(Cart)=  0.02635409 RMS(Int)=  0.00042991
 Iteration  2 RMS(Cart)=  0.00042111 RMS(Int)=  0.00006247
 Iteration  3 RMS(Cart)=  0.00000013 RMS(Int)=  0.00006247
 Variable       Old X    -DE/DX   Delta X   Delta X   Delta X     New X
                                 (Linear)    (Quad)   (Total)
    R1        2.56621   0.01959   0.00000   0.03790   0.03799   2.60420
    R2        2.49116   0.04155   0.00000   0.06525   0.06517   2.55633
    R3        2.58932   0.02087   0.00000   0.04078   0.04091   2.63023
    R4        2.65007  -0.03153   0.00000  -0.06724  -0.06724   2.58283
    R5        2.58363   0.03310   0.00000   0.06053   0.06052   2.64415
    R6        2.04066  -0.00121   0.00000  -0.00320  -0.00320   2.03746
    R7        2.68811  -0.01479   0.00000  -0.03628  -0.03641   2.65170
    R8        2.03942   0.00102   0.00000   0.00271   0.00271   2.04213
    R9        2.04355   0.00056   0.00000   0.00149   0.00149   2.04504
   R10        2.28545   0.06943   0.00000   0.06814   0.06814   2.35359
   R11        2.50066   0.03401   0.00000   0.05418   0.05418   2.55484
   R12        1.84749  -0.00313   0.00000  -0.00585  -0.00585   1.84164
    A1        1.82538   0.00080   0.00000   0.00971   0.00972   1.83510
    A2        1.96228  -0.00722   0.00000  -0.02195  -0.02176   1.94052
    A3        2.10993   0.00310   0.00000   0.00907   0.00897   2.11891
    A4        2.21097   0.00412   0.00000   0.01288   0.01279   2.22376
    A5        1.85358   0.00057   0.00000  -0.00002   0.00009   1.85367
    A6        2.11286  -0.00030   0.00000  -0.00007  -0.00013   2.11273
    A7        2.31674  -0.00027   0.00000   0.00010   0.00004   2.31678
    A8        1.83183   0.00538   0.00000   0.01398   0.01385   1.84568
    A9        2.22235  -0.00204   0.00000  -0.00329  -0.00322   2.21912
   A10        2.22901  -0.00334   0.00000  -0.01069  -0.01063   2.21838
   A11        1.95170   0.00047   0.00000  -0.00171  -0.00190   1.94980
   A12        2.09130   0.00071   0.00000   0.00624   0.00633   2.09763
   A13        2.24019  -0.00119   0.00000  -0.00453  -0.00444   2.23575
   A14        2.12836   0.00736   0.00000   0.02760   0.02760   2.15596
   A15        2.00470  -0.00438   0.00000  -0.01645  -0.01645   1.98825
   A16        2.15012  -0.00297   0.00000  -0.01115  -0.01115   2.13897
   A17        1.94232  -0.00681   0.00000  -0.03856  -0.03856   1.90376
    D1       -0.00014   0.00001   0.00000   0.00016   0.00015   0.00001
    D2       -3.14159   0.00001   0.00000   0.00011   0.00011  -3.14148
    D3        0.00024  -0.00001   0.00000  -0.00031  -0.00031  -0.00007
    D4       -3.14154  -0.00000   0.00000  -0.00007  -0.00007   3.14158
    D5       -0.00001   0.00000   0.00000   0.00006   0.00006   0.00005
    D6       -3.14154  -0.00000   0.00000  -0.00004  -0.00004  -3.14159
    D7        3.14143   0.00000   0.00000   0.00011   0.00011   3.14154
    D8       -0.00011   0.00000   0.00000   0.00001   0.00001  -0.00010
    D9       -3.14159  -0.00000   0.00000  -0.00003  -0.00003   3.14157
   D10       -0.00002  -0.00000   0.00000  -0.00002  -0.00002  -0.00004
   D11        0.00018  -0.00000   0.00000  -0.00008  -0.00008   0.00009
   D12       -3.14144  -0.00000   0.00000  -0.00007  -0.00007  -3.14151
   D13        0.00014  -0.00001   0.00000  -0.00023  -0.00024  -0.00009
   D14       -3.14155  -0.00000   0.00000  -0.00008  -0.00008   3.14156
   D15       -3.14152  -0.00000   0.00000  -0.00011  -0.00012   3.14156
   D16       -0.00002   0.00000   0.00000   0.00004   0.00004   0.00002
   D17       -0.00025   0.00001   0.00000   0.00035   0.00035   0.00011
   D18        3.14155   0.00000   0.00000   0.00009   0.00009  -3.14155
   D19        3.14145   0.00001   0.00000   0.00020   0.00020  -3.14154
   D20        0.00006  -0.00000   0.00000  -0.00007  -0.00007  -0.00002
   D21        0.00007  -0.00000   0.00000  -0.00001  -0.00001   0.00006
   D22       -3.14155   0.00000   0.00000   0.00000   0.00000  -3.14155
         Item               Value     Threshold  Converged?
 Maximum Force            0.069425     0.000450     NO 
 RMS     Force            0.014752     0.000300     NO 
 Maximum Displacement     0.091348     0.001800     NO 
 RMS     Displacement     0.026387     0.001200     NO 
 Predicted change in Energy=-8.487065D-03
 GradGradGradGradGradGradGradGradGradGradGradGradGradGradGradGradGradGrad

                          Input orientation:                          
 ---------------------------------------------------------------------
 Center     Atomic      Atomic             Coordinates (Angstroms)
 Number     Number       Type             X           Y           Z
 ---------------------------------------------------------------------
      1          7           0        0.670512   -1.119200   -0.000056
      2          7           0       -0.011965    0.078022   -0.000040
      3          6           0        0.866432    1.157692    0.000043
      4          6           0        2.155156    0.612693    0.000011
      5          6           0        1.979930   -0.779541    0.000034
      6          1           0        0.500888    2.172013    0.000071
      7          1           0        3.091684    1.151879    0.000023
      8          6           0       -1.378123    0.119024    0.000017
      9          8           0       -2.034583    1.177442    0.000060
     10          8           0       -1.963089   -1.099838    0.000005
     11          1           0       -1.270558   -1.785514    0.000011
     12          1           0        2.741502   -1.548399    0.000055
 ---------------------------------------------------------------------
                    Distance matrix (angstroms):
                    1          2          3          4          5
     1  N    0.000000
     2  N    1.378084   0.000000
     3  C    2.285306   1.391858   0.000000
     4  C    2.281145   2.232104   1.399226   0.000000
     5  C    1.352754   2.168654   2.234446   1.403217   0.000000
     6  H    3.295581   2.155879   1.078179   2.273342   3.301399
     7  H    3.319620   3.284175   2.225259   1.080651   2.228538
     8  C    2.393763   1.366773   2.473228   3.567600   3.476196
     9  O    3.548536   2.302109   2.901083   4.227630   4.466105
    10  O    2.633672   2.279087   3.619756   4.460124   3.956007
    11  H    2.052249   2.248738   3.637195   4.181736   3.402595
    12  H    2.114997   3.197941   3.292235   2.239222   1.082190
                    6          7          8          9         10
     6  H    0.000000
     7  H    2.784403   0.000000
     8  C    2.783064   4.587588   0.000000
     9  O    2.723561   5.126331   1.245467   0.000000
    10  O    4.095874   5.533621   1.351965   2.278402   0.000000
    11  H    4.335901   5.259033   1.907572   3.059876   0.974551
    12  H    4.343019   2.722889   4.444278   5.499200   4.725927
                   11         12
    11  H    0.000000
    12  H    4.019061   0.000000
 Stoichiometry    C4H4N2O2(1-,2)
 Framework group  C1[X(C4H4N2O2)]
 Deg. of freedom    30
 Full point group                 C1      NOp   1
 Largest Abelian subgroup         C1      NOp   1
 Largest concise Abelian subgroup C1      NOp   1
                         Standard orientation:                         
 ---------------------------------------------------------------------
 Center     Atomic      Atomic             Coordinates (Angstroms)
 Number     Number       Type             X           Y           Z
 ---------------------------------------------------------------------
      1          7           0        0.689207   -1.113421   -0.000067
      2          7           0       -0.002803    0.078317   -0.000051
      3          6           0        0.866950    1.164962    0.000032
      4          6           0        2.159982    0.630266   -0.000000
      5          6           0        1.995873   -0.763322    0.000023
      6          1           0        0.493322    2.176334    0.000060
      7          1           0        3.092177    1.176909    0.000012
      8          6           0       -1.369244    0.108414    0.000006
      9          8           0       -2.034131    1.161559    0.000049
     10          8           0       -1.944464   -1.115077   -0.000006
     11          1           0       -1.246483   -1.795204   -0.000000
     12          1           0        2.763557   -1.526077    0.000044
 ---------------------------------------------------------------------
 Rotational constants (GHZ):           5.1138677           1.7574008           1.3079267
 Standard basis: 6-31+G(d,p) (6D, 7F)
 There are   172 symmetry adapted cartesian basis functions of A   symmetry.
 There are   172 symmetry adapted basis functions of A   symmetry.
   172 basis functions,   284 primitive gaussians,   172 cartesian basis functions
    30 alpha electrons       29 beta electrons
       nuclear repulsion energy       356.8490156172 Hartrees.
 NAtoms=   12 NActive=   12 NUniq=   12 SFac= 1.00D+00 NAtFMM=   60 NAOKFM=F Big=F
 Integral buffers will be    131072 words long.
 Raffenetti 2 integral format.
 Two-electron integral symmetry is turned on.
 ------------------------------------------------------------------------------
 Polarizable Continuum Model (PCM)
 =================================
 Model                : PCM.
 Atomic radii         : SMD-Coulomb.
 Polarization charges : Total charges.
 Charge compensation  : None.
 Solution method      : On-the-fly selection.
 Cavity type          : VdW (van der Waals Surface) (Alpha=1.000).
 Cavity algorithm     : GePol (No added spheres)
                        Default sphere list used, NSphG=   12.
                        Lebedev-Laikov grids with approx.  5.0 points / Ang**2.
                        Smoothing algorithm: York/Karplus (Gamma=1.0000).
                        Polarization charges: spherical gaussians, with
                                              point-specific exponents (IZeta= 3).
                        Self-potential: point-specific (ISelfS= 7).
                        Self-field    : sphere-specific E.n sum rule (ISelfD= 2).
 1st derivatives      : Analytical E(r).r(x)/FMM algorithm (CHGder, D1EAlg=3).
                        Cavity 1st derivative terms included.
 Solvent              : Water, Eps=  78.355300 Eps(inf)=   1.777849
 ------------------------------------------------------------------------------
 Spheres list:
 ISph  on   Nord     Re0    Alpha      Xe            Ye            Ze
    1   N      1    1.8900  1.000      0.689207     -1.113421     -0.000067
    2   N      2    1.8900  1.000     -0.002803      0.078317     -0.000051
    3   C      3    1.8500  1.000      0.866950      1.164962      0.000032
    4   C      4    1.8500  1.000      2.159982      0.630266     -0.000000
    5   C      5    1.8500  1.000      1.995873     -0.763322      0.000023
    6   H      6    1.2000  1.000      0.493322      2.176334      0.000060
    7   H      7    1.2000  1.000      3.092177      1.176909      0.000012
    8   C      8    1.8500  1.000     -1.369244      0.108414      0.000006
    9   O      9    1.5200  1.000     -2.034131      1.161559      0.000049
   10   O     10    1.5200  1.000     -1.944464     -1.115077     -0.000006
   11   H     11    1.2000  1.000     -1.246483     -1.795204     -0.000000
   12   H     12    1.2000  1.000      2.763557     -1.526077      0.000044
 ------------------------------------------------------------------------------
 ------------------------------------------------------------------------------
 Atomic radii for non-electrostatic terms: SMD-CDS.
 ------------------------------------------------------------------------------
 Nuclear repulsion after PCM non-electrostatic terms =      356.8563155118 Hartrees.
 One-electron integrals computed using PRISM.
 NBasis=   172 RedAO= T EigKep=  3.98D-05  NBF=   172
 NBsUse=   172 1.00D-06 EigRej= -1.00D+00 NBFU=   172
 Initial guess from the checkpoint file:  "/scratch/gongke2021/bizuo-PC/Gau-4236.chk"
 B after Tr=     0.000000    0.000000    0.000000
         Rot=    0.999990   -0.000011   -0.000002   -0.004528 Ang=  -0.52 deg.
 Initial guess <Sx>= 0.0000 <Sy>= 0.0000 <Sz>= 0.5000 <S**2>= 0.7609 S= 0.5054
 ExpMin= 4.38D-02 ExpMax= 5.48D+03 ExpMxC= 8.25D+02 IAcc=2 IRadAn=         4 AccDes= 0.00D+00
 Harris functional with IExCor= 1009 and IRadAn=       4 diagonalized for initial guess.
 HarFok:  IExCor= 1009 AccDes= 0.00D+00 IRadAn=         4 IDoV= 1 UseB2=F ITyADJ=14
 ICtDFT=  3500011 ScaDFX=  1.000000  1.000000  1.000000  1.000000
 FoFCou: FMM=F IPFlag=           0 FMFlag=      100000 FMFlg1=           0
         NFxFlg=           0 DoJE=T BraDBF=F KetDBF=T FulRan=T
         wScrn=  0.000000 ICntrl=       500 IOpCl=  0 I1Cent=   200000004 NGrid=           0
         NMat0=    1 NMatS0=      1 NMatT0=    0 NMatD0=    1 NMtDS0=    0 NMtDT0=    0
 Petite list used in FoFCou.
 Keep R1 and R2 ints in memory in canonical form, NReq=241382590.
 Requested convergence on RMS density matrix=1.00D-08 within 128 cycles.
 Requested convergence on MAX density matrix=1.00D-06.
 Requested convergence on             energy=1.00D-06.
 No special actions if energy rises.
 Inv3:  Mode=1 IEnd=     3358092.
 Iteration    1 A*A^-1 deviation from unit magnitude is 3.33D-15 for   1049.
 Iteration    1 A*A^-1 deviation from orthogonality  is 2.28D-15 for    629    322.
 Iteration    1 A^-1*A deviation from unit magnitude is 3.55D-15 for   1049.
 Iteration    1 A^-1*A deviation from orthogonality  is 1.91D-13 for    770    727.
 Error on total polarization charges =  0.06021
 SCF Done:  E(UM062X) =  -414.719291878     A.U. after   16 cycles
            NFock= 16  Conv=0.78D-08     -V/T= 2.0084
 <Sx>= 0.0000 <Sy>= 0.0000 <Sz>= 0.5000 <S**2>= 0.7625 S= 0.5062
 <L.S>= 0.000000000000E+00
 SMD-CDS (non-electrostatic) energy       (kcal/mol) =       4.58
 (included in total energy above)
 Annihilation of the first spin contaminant:
 S**2 before annihilation     0.7625,   after     0.7501
 D1PCM: PCM CHGder 1st derivatives, ID1Alg=3 FixD1E=F DoIter=F DoCFld=F I1PDM=0.
 Calling FoFJK, ICntrl=      2127 FMM=F ISym2X=0 I1Cent= 0 IOpClX= 1 NMat=1 NMatS=1 NMatT=0.
 ***** Axes restored to original set *****
 -------------------------------------------------------------------
 Center     Atomic                   Forces (Hartrees/Bohr)
 Number     Number              X              Y              Z
 -------------------------------------------------------------------
      1        7          -0.005908857   -0.012748407    0.000005070
      2        7          -0.009811673    0.004840038    0.000005281
      3        6           0.001630316    0.006437383   -0.000007219
      4        6          -0.002054055   -0.008778988    0.000009215
      5        6           0.005134125    0.012735156   -0.000009730
      6        1           0.000018249   -0.000081783   -0.000000850
      7        1          -0.000332933    0.000684447    0.000001428
      8        6           0.030908717   -0.004418497   -0.000002473
      9        8          -0.009075880    0.009008089    0.000000511
     10        8          -0.011150503   -0.007403470    0.000000005
     11        1           0.002075176    0.000272802   -0.000000004
     12        1          -0.001432684   -0.000546771   -0.000001235
 -------------------------------------------------------------------
 Cartesian Forces:  Max     0.030908717 RMS     0.007370956

 GradGradGradGradGradGradGradGradGradGradGradGradGradGradGradGradGradGrad
 Berny optimization.
 Using GEDIIS/GDIIS optimizer.
 FormGI is forming the generalized inverse of G from B-inverse, IUseBI=4.
 Internal  Forces:  Max     0.012831797 RMS     0.003669936
 Search for a local minimum.
 Step number   2 out of a maximum of   61
 All quantities printed in internal units (Hartrees-Bohrs-Radians)
 Mixed Optimization -- RFO/linear search
 Update second derivatives using D2CorX and points    1    2
 DE= -9.59D-03 DEPred=-8.49D-03 R= 1.13D+00
 TightC=F SS=  1.41D+00  RLast= 1.68D-01 DXNew= 5.0454D-01 5.0505D-01
 Trust test= 1.13D+00 RLast= 1.68D-01 DXMaxT set to 5.05D-01
 ITU=  1  0
 Use linear search instead of GDIIS.
     Eigenvalues ---    0.01661   0.01887   0.01997   0.02004   0.02067
     Eigenvalues ---    0.02192   0.02308   0.02364   0.02706   0.15702
     Eigenvalues ---    0.16000   0.16000   0.16070   0.22176   0.23649
     Eigenvalues ---    0.24671   0.25000   0.25545   0.35807   0.36011
     Eigenvalues ---    0.36090   0.37043   0.42104   0.48229   0.48525
     Eigenvalues ---    0.51825   0.53332   0.58475   0.61999   0.96602
 RFO step:  Lambda=-1.59744927D-03 EMin= 1.66062351D-02
 Quartic linear search produced a step of  0.24267.
 Iteration  1 RMS(Cart)=  0.01051288 RMS(Int)=  0.00010724
 Iteration  2 RMS(Cart)=  0.00013939 RMS(Int)=  0.00002624
 Iteration  3 RMS(Cart)=  0.00000001 RMS(Int)=  0.00002624
 Variable       Old X    -DE/DX   Delta X   Delta X   Delta X     New X
                                 (Linear)    (Quad)   (Total)
    R1        2.60420   0.00425   0.00922   0.00619   0.01546   2.61966
    R2        2.55633   0.00515   0.01581   0.00130   0.01713   2.57346
    R3        2.63023   0.00262   0.00993   0.00178   0.01173   2.64196
    R4        2.58283  -0.01283  -0.01632  -0.02616  -0.04248   2.54035
    R5        2.64415  -0.00117   0.01469  -0.01194   0.00270   2.64685
    R6        2.03746  -0.00008  -0.00078   0.00013  -0.00064   2.03682
    R7        2.65170  -0.00561  -0.00884  -0.01345  -0.02233   2.62936
    R8        2.04213   0.00005   0.00066  -0.00017   0.00049   2.04262
    R9        2.04504  -0.00062   0.00036  -0.00234  -0.00197   2.04307
   R10        2.35359   0.01244   0.01654   0.00578   0.02232   2.37591
   R11        2.55484   0.01036   0.01315   0.01358   0.02673   2.58158
   R12        1.84164   0.00129  -0.00142   0.00387   0.00245   1.84408
    A1        1.83510  -0.00675   0.00236  -0.03078  -0.02833   1.80677
    A2        1.94052   0.00339  -0.00528   0.02323   0.01801   1.95853
    A3        2.11891  -0.00302   0.00218  -0.01793  -0.01578   2.10312
    A4        2.22376  -0.00037   0.00310  -0.00530  -0.00223   2.22153
    A5        1.85367  -0.00274   0.00002  -0.01613  -0.01613   1.83754
    A6        2.11273   0.00135  -0.00003   0.00796   0.00794   2.12067
    A7        2.31678   0.00138   0.00001   0.00817   0.00819   2.32497
    A8        1.84568   0.00228   0.00336   0.00538   0.00866   1.85434
    A9        2.21912  -0.00192  -0.00078  -0.00910  -0.00983   2.20929
   A10        2.21838  -0.00036  -0.00258   0.00371   0.00118   2.21956
   A11        1.94980   0.00381  -0.00046   0.01829   0.01780   1.96760
   A12        2.09763  -0.00333   0.00154  -0.02071  -0.01915   2.07848
   A13        2.23575  -0.00048  -0.00108   0.00242   0.00136   2.23711
   A14        2.15596   0.00134   0.00670   0.00326   0.00996   2.16592
   A15        1.98825   0.00431  -0.00399   0.02326   0.01927   2.00753
   A16        2.13897  -0.00565  -0.00271  -0.02652  -0.02923   2.10974
   A17        1.90376  -0.00305  -0.00936  -0.01927  -0.02862   1.87514
    D1        0.00001  -0.00000   0.00004  -0.00003   0.00001   0.00002
    D2       -3.14148  -0.00000   0.00003  -0.00010  -0.00008  -3.14155
    D3       -0.00007   0.00000  -0.00008   0.00017   0.00009   0.00002
    D4        3.14158   0.00000  -0.00002   0.00004   0.00002  -3.14159
    D5        0.00005  -0.00000   0.00001  -0.00012  -0.00010  -0.00005
    D6       -3.14159  -0.00000  -0.00001  -0.00003  -0.00004   3.14156
    D7        3.14154  -0.00000   0.00003  -0.00004  -0.00001   3.14152
    D8       -0.00010   0.00000   0.00000   0.00005   0.00005  -0.00005
    D9        3.14157   0.00000  -0.00001   0.00003   0.00002   3.14159
   D10       -0.00004   0.00000  -0.00001   0.00003   0.00003  -0.00002
   D11        0.00009  -0.00000  -0.00002  -0.00006  -0.00008   0.00001
   D12       -3.14151  -0.00000  -0.00002  -0.00006  -0.00008  -3.14159
   D13       -0.00009   0.00000  -0.00006   0.00021   0.00015   0.00006
   D14        3.14156   0.00000  -0.00002   0.00007   0.00005  -3.14158
   D15        3.14156   0.00000  -0.00003   0.00011   0.00008  -3.14155
   D16        0.00002  -0.00000   0.00001  -0.00003  -0.00002  -0.00000
   D17        0.00011  -0.00001   0.00009  -0.00024  -0.00016  -0.00005
   D18       -3.14155  -0.00000   0.00002  -0.00010  -0.00008   3.14156
   D19       -3.14154  -0.00000   0.00005  -0.00010  -0.00006   3.14159
   D20       -0.00002   0.00000  -0.00002   0.00004   0.00002   0.00001
   D21        0.00006  -0.00000  -0.00000  -0.00000  -0.00000   0.00005
   D22       -3.14155  -0.00000   0.00000  -0.00000  -0.00000  -3.14155
         Item               Value     Threshold  Converged?
 Maximum Force            0.012832     0.000450     NO 
 RMS     Force            0.003670     0.000300     NO 
 Maximum Displacement     0.044994     0.001800     NO 
 RMS     Displacement     0.010553     0.001200     NO 
 Predicted change in Energy=-1.104496D-03
 GradGradGradGradGradGradGradGradGradGradGradGradGradGradGradGradGradGrad

                          Input orientation:                          
 ---------------------------------------------------------------------
 Center     Atomic      Atomic             Coordinates (Angstroms)
 Number     Number       Type             X           Y           Z
 ---------------------------------------------------------------------
      1          7           0        0.660411   -1.134069   -0.000028
      2          7           0       -0.010512    0.079024   -0.000002
      3          6           0        0.866261    1.167997    0.000010
      4          6           0        2.150204    0.608244    0.000063
      5          6           0        1.973174   -0.771848   -0.000002
      6          1           0        0.503712    2.183032   -0.000002
      7          1           0        3.087603    1.146437    0.000100
      8          6           0       -1.354313    0.115491    0.000026
      9          8           0       -2.030653    1.175353    0.000054
     10          8           0       -1.965515   -1.106267    0.000008
     11          1           0       -1.263723   -1.784325    0.000027
     12          1           0        2.731137   -1.542799   -0.000019
 ---------------------------------------------------------------------
                    Distance matrix (angstroms):
                    1          2          3          4          5
     1  N    0.000000
     2  N    1.386266   0.000000
     3  C    2.311251   1.398067   0.000000
     4  C    2.292409   2.224583   1.400655   0.000000
     5  C    1.361818   2.158470   2.233440   1.391400   0.000000
     6  H    3.320800   2.165935   1.077839   2.278353   3.300096
     7  H    3.330460   3.276840   2.221446   1.080910   2.218506
     8  C    2.370762   1.344296   2.457380   3.538989   3.443768
     9  O    3.546162   2.298458   2.896924   4.219145   4.452216
    10  O    2.626074   2.286253   3.631973   4.458553   3.952861
    11  H    2.031040   2.245575   3.640472   4.168847   3.391550
    12  H    2.110679   3.185428   3.290316   2.228109   1.081145
                    6          7          8          9         10
     6  H    0.000000
     7  H    2.784065   0.000000
     8  C    2.779745   4.559985   0.000000
     9  O    2.727348   5.118338   1.257277   0.000000
    10  O    4.112976   5.532510   1.366112   2.282550   0.000000
    11  H    4.343241   5.246274   1.901975   3.057430   0.975846
    12  H    4.340880   2.712758   4.409176   5.482974   4.716896
                   11         12
    11  H    0.000000
    12  H    4.002155   0.000000
 Stoichiometry    C4H4N2O2(1-,2)
 Framework group  C1[X(C4H4N2O2)]
 Deg. of freedom    30
 Full point group                 C1      NOp   1
 Largest Abelian subgroup         C1      NOp   1
 Largest concise Abelian subgroup C1      NOp   1
                         Standard orientation:                         
 ---------------------------------------------------------------------
 Center     Atomic      Atomic             Coordinates (Angstroms)
 Number     Number       Type             X           Y           Z
 ---------------------------------------------------------------------
      1          7           0        0.674862   -1.129195   -0.000045
      2          7           0       -0.001396    0.080932   -0.000019
      3          6           0        0.870573    1.173755   -0.000006
      4          6           0        2.156969    0.619661    0.000046
      5          6           0        1.986017   -0.761197   -0.000019
      6          1           0        0.503558    2.187184   -0.000019
      7          1           0        3.091988    1.161977    0.000083
      8          6           0       -1.345345    0.111482    0.000009
      9          8           0       -2.026346    1.168355    0.000037
     10          8           0       -1.951162   -1.112956   -0.000009
     11          1           0       -1.246390   -1.787917    0.000010
     12          1           0        2.747368   -1.528803   -0.000036
 ---------------------------------------------------------------------
 Rotational constants (GHZ):           5.0763616           1.7683015           1.3114653
 Standard basis: 6-31+G(d,p) (6D, 7F)
 There are   172 symmetry adapted cartesian basis functions of A   symmetry.
 There are   172 symmetry adapted basis functions of A   symmetry.
   172 basis functions,   284 primitive gaussians,   172 cartesian basis functions
    30 alpha electrons       29 beta electrons
       nuclear repulsion energy       356.7700049594 Hartrees.
 NAtoms=   12 NActive=   12 NUniq=   12 SFac= 1.00D+00 NAtFMM=   60 NAOKFM=F Big=F
 Integral buffers will be    131072 words long.
 Raffenetti 2 integral format.
 Two-electron integral symmetry is turned on.
 ------------------------------------------------------------------------------
 Polarizable Continuum Model (PCM)
 =================================
 Model                : PCM.
 Atomic radii         : SMD-Coulomb.
 Polarization charges : Total charges.
 Charge compensation  : None.
 Solution method      : On-the-fly selection.
 Cavity type          : VdW (van der Waals Surface) (Alpha=1.000).
 Cavity algorithm     : GePol (No added spheres)
                        Default sphere list used, NSphG=   12.
                        Lebedev-Laikov grids with approx.  5.0 points / Ang**2.
                        Smoothing algorithm: York/Karplus (Gamma=1.0000).
                        Polarization charges: spherical gaussians, with
                                              point-specific exponents (IZeta= 3).
                        Self-potential: point-specific (ISelfS= 7).
                        Self-field    : sphere-specific E.n sum rule (ISelfD= 2).
 1st derivatives      : Analytical E(r).r(x)/FMM algorithm (CHGder, D1EAlg=3).
                        Cavity 1st derivative terms included.
 Solvent              : Water, Eps=  78.355300 Eps(inf)=   1.777849
 ------------------------------------------------------------------------------
 Spheres list:
 ISph  on   Nord     Re0    Alpha      Xe            Ye            Ze
    1   N      1    1.8900  1.000      0.674862     -1.129195     -0.000045
    2   N      2    1.8900  1.000     -0.001396      0.080932     -0.000019
    3   C      3    1.8500  1.000      0.870573      1.173755     -0.000006
    4   C      4    1.8500  1.000      2.156969      0.619661      0.000046
    5   C      5    1.8500  1.000      1.986017     -0.761197     -0.000019
    6   H      6    1.2000  1.000      0.503558      2.187184     -0.000019
    7   H      7    1.2000  1.000      3.091988      1.161977      0.000083
    8   C      8    1.8500  1.000     -1.345345      0.111482      0.000009
    9   O      9    1.5200  1.000     -2.026346      1.168355      0.000037
   10   O     10    1.5200  1.000     -1.951162     -1.112956     -0.000009
   11   H     11    1.2000  1.000     -1.246390     -1.787917      0.000010
   12   H     12    1.2000  1.000      2.747368     -1.528803     -0.000036
 ------------------------------------------------------------------------------
 ------------------------------------------------------------------------------
 Atomic radii for non-electrostatic terms: SMD-CDS.
 ------------------------------------------------------------------------------
 Nuclear repulsion after PCM non-electrostatic terms =      356.7770524223 Hartrees.
 One-electron integrals computed using PRISM.
 NBasis=   172 RedAO= T EigKep=  3.87D-05  NBF=   172
 NBsUse=   172 1.00D-06 EigRej= -1.00D+00 NBFU=   172
 Initial guess from the checkpoint file:  "/scratch/gongke2021/bizuo-PC/Gau-4236.chk"
 B after Tr=     0.000000    0.000000    0.000000
         Rot=    0.999998    0.000001    0.000001    0.001763 Ang=   0.20 deg.
 Initial guess <Sx>= 0.0000 <Sy>= 0.0000 <Sz>= 0.5000 <S**2>= 0.7625 S= 0.5062
 ExpMin= 4.38D-02 ExpMax= 5.48D+03 ExpMxC= 8.25D+02 IAcc=2 IRadAn=         4 AccDes= 0.00D+00
 Harris functional with IExCor= 1009 and IRadAn=       4 diagonalized for initial guess.
 HarFok:  IExCor= 1009 AccDes= 0.00D+00 IRadAn=         4 IDoV= 1 UseB2=F ITyADJ=14
 ICtDFT=  3500011 ScaDFX=  1.000000  1.000000  1.000000  1.000000
 FoFCou: FMM=F IPFlag=           0 FMFlag=      100000 FMFlg1=           0
         NFxFlg=           0 DoJE=T BraDBF=F KetDBF=T FulRan=T
         wScrn=  0.000000 ICntrl=       500 IOpCl=  0 I1Cent=   200000004 NGrid=           0
         NMat0=    1 NMatS0=      1 NMatT0=    0 NMatD0=    1 NMtDS0=    0 NMtDT0=    0
 Petite list used in FoFCou.
 Keep R1 and R2 ints in memory in canonical form, NReq=241382590.
 Requested convergence on RMS density matrix=1.00D-08 within 128 cycles.
 Requested convergence on MAX density matrix=1.00D-06.
 Requested convergence on             energy=1.00D-06.
 No special actions if energy rises.
 Inv3:  Mode=1 IEnd=     3345408.
 Iteration    1 A*A^-1 deviation from unit magnitude is 4.44D-15 for   1043.
 Iteration    1 A*A^-1 deviation from orthogonality  is 1.91D-15 for    378     22.
 Iteration    1 A^-1*A deviation from unit magnitude is 4.44D-15 for   1043.
 Iteration    1 A^-1*A deviation from orthogonality  is 1.74D-12 for    830    728.
 Error on total polarization charges =  0.05991
 SCF Done:  E(UM062X) =  -414.720299419     A.U. after   15 cycles
            NFock= 15  Conv=0.88D-08     -V/T= 2.0084
 <Sx>= 0.0000 <Sy>= 0.0000 <Sz>= 0.5000 <S**2>= 0.7630 S= 0.5065
 <L.S>= 0.000000000000E+00
 SMD-CDS (non-electrostatic) energy       (kcal/mol) =       4.42
 (included in total energy above)
 Annihilation of the first spin contaminant:
 S**2 before annihilation     0.7630,   after     0.7501
 D1PCM: PCM CHGder 1st derivatives, ID1Alg=3 FixD1E=F DoIter=F DoCFld=F I1PDM=0.
 Calling FoFJK, ICntrl=      2127 FMM=F ISym2X=0 I1Cent= 0 IOpClX= 1 NMat=1 NMatS=1 NMatT=0.
 ***** Axes restored to original set *****
 -------------------------------------------------------------------
 Center     Atomic                   Forces (Hartrees/Bohr)
 Number     Number              X              Y              Z
 -------------------------------------------------------------------
      1        7           0.003621598    0.000843368   -0.000001062
      2        7          -0.001553328    0.002060697   -0.000001960
      3        6           0.001633660   -0.001221531    0.000004060
      4        6          -0.001497223    0.000632394   -0.000005577
      5        6           0.001205286   -0.002180684    0.000004159
      6        1          -0.000452343   -0.000443727    0.000001012
      7        1          -0.000089551    0.000058218   -0.000000593
      8        6          -0.002252747    0.002995337   -0.000000510
      9        8          -0.000073543   -0.001384899   -0.000000043
     10        8          -0.000687110    0.000200232    0.000000429
     11        1          -0.000001976   -0.001067067   -0.000000428
     12        1           0.000147278   -0.000492339    0.000000513
 -------------------------------------------------------------------
 Cartesian Forces:  Max     0.003621598 RMS     0.001199484

 GradGradGradGradGradGradGradGradGradGradGradGradGradGradGradGradGradGrad
 Berny optimization.
 Using GEDIIS/GDIIS optimizer.
 FormGI is forming the generalized inverse of G from B-inverse, IUseBI=4.
 Internal  Forces:  Max     0.003031632 RMS     0.000978526
 Search for a local minimum.
 Step number   3 out of a maximum of   61
 All quantities printed in internal units (Hartrees-Bohrs-Radians)
 Mixed Optimization -- En-DIIS/RFO-DIIS
 Update second derivatives using D2CorX and points    1    2    3
 DE= -1.01D-03 DEPred=-1.10D-03 R= 9.12D-01
 TightC=F SS=  1.41D+00  RLast= 9.48D-02 DXNew= 8.4853D-01 2.8425D-01
 Trust test= 9.12D-01 RLast= 9.48D-02 DXMaxT set to 5.05D-01
 ITU=  1  1  0
 Use linear search instead of GDIIS.
     Eigenvalues ---    0.01661   0.01890   0.01993   0.01994   0.02065
     Eigenvalues ---    0.02188   0.02305   0.02364   0.02706   0.15656
     Eigenvalues ---    0.16000   0.16038   0.16184   0.21499   0.22907
     Eigenvalues ---    0.24915   0.25128   0.28508   0.35671   0.35876
     Eigenvalues ---    0.36089   0.36197   0.42889   0.48319   0.48589
     Eigenvalues ---    0.51812   0.53732   0.57203   0.62029   0.96541
 RFO step:  Lambda=-1.04931379D-04 EMin= 1.66062341D-02
 Quartic linear search produced a step of -0.11219.
 Iteration  1 RMS(Cart)=  0.00669021 RMS(Int)=  0.00001967
 Iteration  2 RMS(Cart)=  0.00001977 RMS(Int)=  0.00000208
 Iteration  3 RMS(Cart)=  0.00000000 RMS(Int)=  0.00000208
 Variable       Old X    -DE/DX   Delta X   Delta X   Delta X     New X
                                 (Linear)    (Quad)   (Total)
    R1        2.61966   0.00262  -0.00173   0.00648   0.00474   2.62441
    R2        2.57346  -0.00064  -0.00192   0.00112  -0.00081   2.57265
    R3        2.64196  -0.00066  -0.00132   0.00010  -0.00121   2.64075
    R4        2.54035   0.00303   0.00477   0.00046   0.00522   2.54557
    R5        2.64685  -0.00006  -0.00030  -0.00051  -0.00081   2.64605
    R6        2.03682  -0.00026   0.00007  -0.00072  -0.00065   2.03617
    R7        2.62936   0.00056   0.00251  -0.00180   0.00071   2.63007
    R8        2.04262  -0.00005  -0.00006  -0.00008  -0.00013   2.04249
    R9        2.04307   0.00045   0.00022   0.00083   0.00105   2.04412
   R10        2.37591  -0.00113  -0.00250   0.00165  -0.00086   2.37505
   R11        2.58158   0.00109  -0.00300   0.00500   0.00200   2.58357
   R12        1.84408   0.00074  -0.00027   0.00170   0.00142   1.84551
    A1        1.80677   0.00218   0.00318   0.00451   0.00768   1.81445
    A2        1.95853  -0.00240  -0.00202  -0.00555  -0.00757   1.95096
    A3        2.10312   0.00205   0.00177   0.00487   0.00664   2.10977
    A4        2.22153   0.00034   0.00025   0.00068   0.00093   2.22246
    A5        1.83754   0.00117   0.00181   0.00167   0.00349   1.84103
    A6        2.12067  -0.00117  -0.00089  -0.00416  -0.00505   2.11562
    A7        2.32497   0.00000  -0.00092   0.00248   0.00156   2.32653
    A8        1.85434   0.00086  -0.00097   0.00393   0.00297   1.85731
    A9        2.20929  -0.00053   0.00110  -0.00340  -0.00230   2.20699
   A10        2.21956  -0.00033  -0.00013  -0.00053  -0.00067   2.21889
   A11        1.96760  -0.00181  -0.00200  -0.00457  -0.00657   1.96103
   A12        2.07848   0.00067   0.00215  -0.00066   0.00149   2.07997
   A13        2.23711   0.00115  -0.00015   0.00523   0.00508   2.24219
   A14        2.16592   0.00062  -0.00112   0.00338   0.00227   2.16819
   A15        2.00753   0.00068  -0.00216   0.00548   0.00332   2.01084
   A16        2.10974  -0.00131   0.00328  -0.00886  -0.00558   2.10416
   A17        1.87514   0.00142   0.00321   0.00420   0.00741   1.88254
    D1        0.00002  -0.00000  -0.00000  -0.00002  -0.00002   0.00000
    D2       -3.14155   0.00000   0.00001  -0.00001  -0.00000  -3.14156
    D3        0.00002  -0.00000  -0.00001  -0.00003  -0.00004  -0.00002
    D4       -3.14159  -0.00000  -0.00000  -0.00000  -0.00000  -3.14159
    D5       -0.00005   0.00000   0.00001   0.00006   0.00007   0.00002
    D6        3.14156   0.00000   0.00000   0.00002   0.00003   3.14158
    D7        3.14152   0.00000   0.00000   0.00005   0.00005   3.14157
    D8       -0.00005   0.00000  -0.00001   0.00001   0.00001  -0.00004
    D9        3.14159  -0.00000  -0.00000  -0.00001  -0.00002   3.14157
   D10       -0.00002  -0.00000  -0.00000  -0.00001  -0.00002  -0.00003
   D11        0.00001   0.00000   0.00001  -0.00000   0.00000   0.00002
   D12       -3.14159   0.00000   0.00001  -0.00000   0.00001  -3.14158
   D13        0.00006  -0.00000  -0.00002  -0.00007  -0.00009  -0.00003
   D14       -3.14158  -0.00000  -0.00001  -0.00003  -0.00003   3.14158
   D15       -3.14155  -0.00000  -0.00001  -0.00003  -0.00004  -3.14159
   D16       -0.00000   0.00000   0.00000   0.00002   0.00002   0.00001
   D17       -0.00005   0.00000   0.00002   0.00007   0.00009   0.00003
   D18        3.14156   0.00000   0.00001   0.00004   0.00004  -3.14158
   D19        3.14159   0.00000   0.00001   0.00002   0.00003  -3.14157
   D20        0.00001  -0.00000  -0.00000  -0.00001  -0.00001  -0.00000
   D21        0.00005  -0.00000   0.00000  -0.00001  -0.00001   0.00004
   D22       -3.14155  -0.00000   0.00000  -0.00001  -0.00001  -3.14156
[...]
   D11        0.00001   0.00000   0.00000  -0.00001  -0.00001  -0.00000
   D12       -3.14159   0.00000   0.00000  -0.00000  -0.00000   3.14159
   D13       -0.00003   0.00000   0.00000   0.00003   0.00003   0.00000
   D14        3.14158   0.00000   0.00000   0.00001   0.00001   3.14159
   D15        3.14159   0.00000   0.00000   0.00000   0.00000  -3.14159
   D16        0.00001  -0.00000   0.00000  -0.00001  -0.00001   0.00000
   D17        0.00003  -0.00000   0.00000  -0.00003  -0.00003  -0.00000
   D18       -3.14158  -0.00000   0.00000  -0.00001  -0.00001   3.14159
   D19       -3.14157  -0.00000   0.00000  -0.00002  -0.00002  -3.14159
   D20       -0.00001   0.00000   0.00000   0.00001   0.00001   0.00000
   D21        0.00002  -0.00000   0.00000  -0.00002  -0.00002  -0.00000
   D22       -3.14157  -0.00000   0.00000  -0.00002  -0.00002   3.14159
         Item               Value     Threshold  Converged?
 Maximum Force            0.000148     0.000450     YES
 RMS     Force            0.000032     0.000300     YES
 Maximum Displacement     0.000422     0.001800     YES
 RMS     Displacement     0.000149     0.001200     YES
 Predicted change in Energy=-7.096219D-08
 Optimization completed.
    -- Stationary point found.
                           ----------------------------
                           !   Optimized Parameters   !
                           ! (Angstroms and Degrees)  !
 --------------------------                            --------------------------
 ! Name  Definition              Value          Derivative Info.                !
 --------------------------------------------------------------------------------
 ! R1    R(1,2)                  1.3894         -DE/DX =    0.0001              !
 ! R2    R(1,5)                  1.3609         -DE/DX =    0.0                 !
 ! R3    R(2,3)                  1.3972         -DE/DX =    0.0                 !
 ! R4    R(2,8)                  1.3466         -DE/DX =    0.0                 !
 ! R5    R(3,4)                  1.399          -DE/DX =    0.0                 !
 ! R6    R(3,6)                  1.0777         -DE/DX =    0.0                 !
 ! R7    R(4,5)                  1.3927         -DE/DX =    0.0                 !
 ! R8    R(4,7)                  1.0809         -DE/DX =    0.0                 !
 ! R9    R(5,12)                 1.0816         -DE/DX =    0.0                 !
 ! R10   R(8,9)                  1.2561         -DE/DX =   -0.0001              !
 ! R11   R(8,10)                 1.3676         -DE/DX =    0.0001              !
 ! R12   R(10,11)                0.9761         -DE/DX =    0.0001              !
 ! A1    A(2,1,5)              103.8571         -DE/DX =    0.0                 !
 ! A2    A(1,2,3)              111.8063         -DE/DX =    0.0                 !
 ! A3    A(1,2,8)              120.8438         -DE/DX =    0.0                 !
 ! A4    A(3,2,8)              127.3499         -DE/DX =    0.0                 !
 ! A5    A(2,3,4)              105.5449         -DE/DX =    0.0                 !
 ! A6    A(2,3,6)              121.134          -DE/DX =    0.0                 !
 ! A7    A(4,3,6)              133.3211         -DE/DX =    0.0                 !
 ! A8    A(3,4,5)              106.3365         -DE/DX =    0.0                 !
 ! A9    A(3,4,7)              126.4233         -DE/DX =    0.0                 !
 ! A10   A(5,4,7)              127.2402         -DE/DX =    0.0                 !
 ! A11   A(1,5,4)              112.4551         -DE/DX =    0.0                 !
 ! A12   A(1,5,12)             119.0398         -DE/DX =    0.0                 !
 ! A13   A(4,5,12)             128.5051         -DE/DX =    0.0                 !
 ! A14   A(2,8,9)              124.2918         -DE/DX =    0.0                 !
 ! A15   A(2,8,10)             115.0718         -DE/DX =    0.0                 !
 ! A16   A(9,8,10)             120.6363         -DE/DX =    0.0                 !
 ! A17   A(8,10,11)            107.918          -DE/DX =    0.0                 !
 ! D1    D(5,1,2,3)              0.0005         -DE/DX =    0.0                 !
 ! D2    D(5,1,2,8)           -179.9988         -DE/DX =    0.0                 !
 ! D3    D(2,1,5,4)             -0.0014         -DE/DX =    0.0                 !
 ! D4    D(2,1,5,12)          -180.0002         -DE/DX =    0.0                 !
 ! D5    D(1,2,3,4)              0.0006         -DE/DX =    0.0                 !
 ! D6    D(1,2,3,6)            179.9995         -DE/DX =    0.0                 !
 ! D7    D(8,2,3,4)            179.9998         -DE/DX =    0.0                 !
 ! D8    D(8,2,3,6)             -0.0013         -DE/DX =    0.0                 !
 ! D9    D(1,2,8,9)            179.9995         -DE/DX =    0.0                 !
 ! D10   D(1,2,8,10)            -0.0007         -DE/DX =    0.0                 !
 ! D11   D(3,2,8,9)              0.0004         -DE/DX =    0.0                 !
 ! D12   D(3,2,8,10)           180.0001         -DE/DX =    0.0                 !
 ! D13   D(2,3,4,5)             -0.0015         -DE/DX =    0.0                 !
 ! D14   D(2,3,4,7)            179.9994         -DE/DX =    0.0                 !
 ! D15   D(6,3,4,5)           -180.0001         -DE/DX =    0.0                 !
 ! D16   D(6,3,4,7)              0.0008         -DE/DX =    0.0                 !
 ! D17   D(3,4,5,1)              0.0019         -DE/DX =    0.0                 !
 ! D18   D(3,4,5,12)           180.0005         -DE/DX =    0.0                 !
 ! D19   D(7,4,5,1)           -179.999          -DE/DX =    0.0                 !
 ! D20   D(7,4,5,12)            -0.0003         -DE/DX =    0.0                 !
 ! D21   D(2,8,10,11)            0.0012         -DE/DX =    0.0                 !
 ! D22   D(9,8,10,11)          180.001          -DE/DX =    0.0                 !
 --------------------------------------------------------------------------------
 GradGradGradGradGradGradGradGradGradGradGradGradGradGradGradGradGradGrad


 ----------------------------------------------------------------------

 Electric dipole moment (input orientation):
 (Debye = 10**-18 statcoulomb cm , SI units = C m)
                  (au)            (Debye)         (10**-30 SI)
   Tot        0.231545D+01      0.588529D+01      0.196312D+02
   x          0.220572D+01      0.560639D+01      0.187009D+02
   y         -0.704341D+00     -0.179026D+01     -0.597165D+01
   z         -0.120262D-04     -0.305676D-04     -0.101962D-03

 Dipole polarizability, Alpha (input orientation).
 (esu units = cm**3 , SI units = C**2 m**2 J**-1)
 Alpha(0;0):
               (au)            (10**-24 esu)      (10**-40 SI)
   iso        0.125336D+03      0.185729D+02      0.206652D+02
   aniso      0.988117D+02      0.146424D+02      0.162919D+02
   xx         0.181450D+03      0.268881D+02      0.299170D+02
   yx        -0.107956D+02     -0.159974D+01     -0.177995D+01
   yy         0.125145D+03      0.185446D+02      0.206337D+02
   zx         0.000000D+00      0.000000D+00      0.000000D+00
   zy         0.865966D-03      0.128323D-03      0.142778D-03
   zz         0.694139D+02      0.102861D+02      0.114448D+02

 ----------------------------------------------------------------------

 Dipole orientation:
     7         -0.50365219         -1.57724283          1.85338019
     7          0.04187306          0.13121294         -0.06425925
     6          0.79025737          2.47504305          0.89387058
     6          0.70995671          2.22351228          3.52435529
     6         -0.07696638         -0.24082741          4.00870164
     1          1.28112979          4.01229369         -0.34837432
     1          1.17057751          3.66603864          4.89526810
     6         -0.17243208         -0.53990943         -2.50940129
     8          0.28813335          0.90252963         -4.33745288
     8         -0.94883946         -2.97149744         -2.91362633
     1         -1.20285286         -3.76694234         -1.26890985
     1         -0.36790941         -1.15193913          5.81505934

 Electric dipole moment (dipole orientation):
 (Debye = 10**-18 statcoulomb cm , SI units = C m)
                  (au)            (Debye)         (10**-30 SI)
   Tot        0.231545D+01      0.588529D+01      0.196312D+02
   x          0.000000D+00      0.000000D+00      0.000000D+00
   y          0.000000D+00      0.000000D+00      0.000000D+00
   z          0.231545D+01      0.588529D+01      0.196312D+02

 Dipole polarizability, Alpha (dipole orientation).
 (esu units = cm**3 , SI units = C**2 m**2 J**-1)
 Alpha(0;0):
               (au)            (10**-24 esu)      (10**-40 SI)
   iso        0.125336D+03      0.185729D+02      0.206652D+02
   aniso      0.988117D+02      0.146424D+02      0.162919D+02
   xx         0.744735D+02      0.110358D+02      0.122790D+02
   yx         0.158457D+02      0.234809D+01      0.261260D+01
   yy         0.119039D+03      0.176398D+02      0.196269D+02
   zx         0.228661D+01      0.338841D+00      0.377011D+00
   zy         0.716184D+01      0.106128D+01      0.118083D+01
   zz         0.182496D+03      0.270432D+02      0.300896D+02

 ----------------------------------------------------------------------
 1\1\GINC-NODE3\Freq\UM062X\6-31+G(d,p)\C4H4N2O2(1-,2)\GONGKE2021\05-No
 v-2023\0\\#N Geom=AllCheck Guess=TCheck SCRF=Check GenChk UM062X/6-31+
 G(d,p) Freq\\Title Card Required\\-1,2\N,0.6677678418,-1.132982029,-0.
 0000048533\N,-0.0102221391,0.0797747437,0.0000134824\C,0.8688264712,1.
 1658360558,0.0000397018\C,2.1523512058,0.609302143,0.0000227989\C,1.98
 00883777,-0.7727361069,0.0000214339\H,0.5023736016,2.1792784686,0.0000
 475603\H,3.0871844164,1.151974676,0.0000254264\C,-1.3562237419,0.11822
 98023,0.0000199866\O,-2.0340044379,1.1757933343,0.0000452682\O,-1.9708
 782079,-1.1034337347,-0.0000078279\H,-1.276190655,-1.7891184989,-0.000
 0079907\H,2.7367142671,-1.5456478543,0.0000180134\\Version=ES64L-G16Re
 vA.03\State=2-A\HF=-414.7203654\S2=0.76303\S2-1=0.\S2A=0.750112\RMSD=1
 .448e-09\RMSF=5.327e-05\ZeroPoint=0.0820043\Thermal=0.0888511\Dipole=2
 .2057229,-0.7043406,-0.000012\DipoleDeriv=-0.427763,-0.9464354,-0.0000
 088,0.8165493,-0.9217679,-0.0000084,0.0000279,-0.0000364,-0.43249,0.21
 52509,-0.0058307,-0.0000031,0.1202776,-0.2451447,0.0000003,0.0000062,0
 .0000038,0.0047306,-0.146425,0.5864142,0.000011,-1.0254431,-0.4040549,
 -0.0000025,-0.0000363,-0.0000316,-0.5163522,-0.2090165,-0.5184036,-0.0
 000078,0.1168,0.1105692,0.0000029,0.0000201,0.0000127,-0.3275762,-0.31
 48023,0.8729882,0.0000157,-0.0401206,0.3034,0.0000056,-0.0000257,0.000
 0423,-0.2532494,0.0599814,0.0425642,-0.0000008,0.0129115,0.0413942,-0.
 0000031,0.0000063,0.0000074,0.368138,-0.0271125,-0.0869249,-0.0000011,
 -0.1018553,0.1167512,-0.000001,-0.0000031,-0.0000016,0.2679737,3.29735
 26,-0.2835971,-0.0000077,-1.1877023,2.6941135,0.0000505,-0.0000264,0.0
 000572,0.5329671,-2.5692356,0.4679636,0.0000082,2.4845246,-1.6707548,-
 0.0000184,0.0000586,-0.0000239,-0.7558381,-1.3233792,-0.2938361,-0.000
 0051,-1.3678732,-1.5393681,-0.0000243,-0.000039,-0.0000268,-0.5899359,
 0.4390201,0.0812309,-0.0000003,0.0714008,0.4880846,0.0000001,0.0000065
 ,0.0000045,0.4439999,0.0061292,0.0838667,-0.0000003,0.1005307,0.026777
 8,-0.0000017,0.000005,-0.0000077,0.2576323\Polar=181.4498531,-10.79558
 31,125.1453379,-0.0000032,0.000866,69.4138849\Quadrupole=-6.9685952,3.
 1018552,3.8667399,5.0577186,0.0000901,-0.0001433\PG=C01 [X(C4H4N2O2)]\
 NImag=0\\0.53445625,0.03813700,0.38737584,0.00000378,0.00000564,0.0674
 6305,-0.12644977,-0.03229451,-0.00000154,0.84603043,0.07399181,-0.2073
 7621,-0.00000238,0.03077270,0.60662335,0.00000190,-0.00000326,-0.04870
 414,0.00000106,0.00000984,0.09619194,0.00848107,0.00142560,0.00000100,
 -0.15133773,-0.07738294,-0.00000265,0.60519805,0.00177339,-0.04042179,
 -0.00000063,-0.03482967,-0.21073224,-0.00000348,-0.14467255,0.75249458
 ,-0.00000059,-0.00000014,-0.00142865,-0.00000002,-0.00000355,-0.037806
 71,-0.00000088,0.00000801,0.05587117,-0.05521921,-0.02961637,-0.000001
 48,-0.06871740,-0.03830662,0.00000031,-0.29940908,0.08811129,0.0000012
 3,0.77522872,-0.05590830,-0.03674154,0.00000007,-0.00736631,0.00802573
 ,-0.00000006,0.07799108,-0.13390612,-0.00000122,0.13600574,0.66396553,
 -0.00000083,-0.00000151,0.02000031,-0.00000127,0.00000008,0.00614215,0
 .00000273,-0.00000138,-0.04073740,-0.00000009,0.00000403,0.10209260,-0
 .30918677,-0.03139260,-0.00000338,-0.07360829,0.03126250,-0.00000115,-
 0.01892780,0.02805876,0.00000061,-0.07998840,-0.03272482,-0.00000015,0
 .69223495,-0.10124251,-0.11278235,-0.00000312,0.04244660,-0.02147805,0
 .00000033,0.07094876,-0.05143530,-0.00000090,-0.04573583,-0.35287410,-
 0.00000045,-0.11700195,0.76641259,-0.00000431,-0.00000099,-0.04709332,
 0.00000084,0.00000012,0.00420274,-0.00000048,-0.00000122,0.02039612,0.
 00000082,-0.00000168,-0.06165692,0.00000311,0.00000542,0.10803982,-0.0
 0190614,-0.00290441,-0.00000007,0.01075219,-0.02239408,-0.00000013,-0.
 09575081,0.11041843,0.00000098,0.00493812,0.02036041,-0.00000007,-0.00
 630371,0.00155908,0.00000002,0.08787418,-0.00120575,-0.00116560,-0.000
 00002,0.00848848,-0.01542394,0.00000004,0.09985945,-0.33579333,-0.0000
 0295,-0.00101345,0.00198381,0.00000012,-0.00191384,0.00010103,-0.00000
 006,-0.10739221,0.35042837,-0.00000011,-0.00000019,0.00402662,-0.00000
 004,-0.00000073,-0.00574216,0.00000053,-0.00000179,-0.00408794,0.00000
 025,-0.00000043,-0.00263940,-0.00000003,0.00000021,0.00223274,-0.00000
 076,0.00000291,0.00757593,0.00066912,0.00170767,0.00000007,-0.00424171
 ,0.00108396,0.00000010,-0.00901455,-0.01546814,-0.00000032,-0.28777372
 ,-0.13347283,-0.00000062,0.00424079,0.00267615,0.00000002,0.00037049,0
 .00040145,0.,0.29618595,-0.00094384,-0.00557579,0.00000002,0.00499439,
 -0.00181003,-0.00000016,0.01008148,0.01198774,0.00000026,-0.13293567,-
 0.13399517,-0.00000050,-0.02605178,-0.00153712,-0.00000030,-0.00093589
 ,-0.00033632,0.00000002,0.14472895,0.12948822,-0.00000026,-0.00000020,
 0.00709376,-0.00000009,-0.00000017,0.00420029,0.00000038,0.00000026,-0
 .00127695,-0.00000098,-0.00000061,-0.02530654,0.00000007,0.00000007,-0
 .00109608,0.,0.,-0.00194872,0.00000079,0.00000063,0.02047412,-0.032229
 50,0.01584008,0.00000061,-0.37267060,0.00401680,0.00000023,-0.03557112
 ,-0.01172457,0.00000004,0.00841991,-0.00607004,0.00000002,0.01065580,0
 .00219075,0.00000017,0.00141738,0.00248090,-0.00000010,0.00146840,-0.0
 0009515,0.00000006,0.76774181,0.03475405,0.02039007,0.00000033,0.00383
 949,-0.12318544,-0.00000166,-0.03160409,-0.00388728,-0.00000045,-0.004
 55418,-0.00350445,0.00000013,-0.00689158,-0.01320961,-0.00000043,0.000
 08505,-0.00156250,0.00000014,-0.00139327,0.00060838,-0.00000002,-0.137
 12721,0.72467195,0.00000046,-0.00000001,0.00546271,0.00000009,-0.00000
 167,-0.04027842,-0.00000091,0.00000033,0.00899880,0.00000015,-0.000000
 35,-0.00151519,-0.00000021,0.00000009,-0.00313435,0.00000005,-0.000000
 08,-0.00117774,-0.00000003,-0.00000002,0.00058100,-0.00000397,0.000013
 32,0.08671144,-0.00375149,0.01337493,0.00000038,-0.02160997,0.05766180
 ,0.00000175,0.00355259,-0.01816107,-0.00000089,-0.00545874,0.00725924,
 0.00000027,-0.00992481,-0.00130667,-0.00000026,-0.00168319,0.00060705,
 0.00000022,-0.00076799,-0.00011056,0.,-0.21915992,0.18608234,0.0000049
 8,0.24160009,-0.00126364,-0.03490284,-0.00000107,-0.01873875,-0.012091
 78,-0.00000114,0.00426039,0.03501738,0.00000177,0.00657277,-0.00939227
 ,-0.00000047,0.01679530,0.00874452,0.00000067,0.00056409,0.00154258,-0
 .00000032,0.00087484,0.00023004,0.,0.19791839,-0.36601337,-0.00000779,
 -0.23070507,0.44373910,0.,-0.00000062,0.00231144,0.00000005,-0.0000008
 5,0.00950941,0.00000021,0.00000079,-0.00546075,0.00000006,-0.00000013,
 -0.00025688,0.00000043,0.,0.00205217,0.,0.00000003,0.00064439,0.000000
 02,0.00000001,0.00006403,0.00000484,-0.00000752,-0.03233878,-0.0000060
 7,0.00000989,0.01727869,-0.00712091,0.00248779,-0.00000011,-0.03354973
 ,-0.05192235,-0.00000119,-0.00469707,0.00131060,-0.00000005,-0.0033652
 6,-0.00271609,0.,-0.00226347,-0.00364199,-0.00000002,-0.00040690,-0.00
 061999,0.00000005,-0.00080078,-0.00003204,-0.00000002,-0.15374339,-0.0
 3636020,-0.00000078,0.02236438,0.02745919,0.00000065,0.45768381,0.0175
 9955,0.02169413,0.00000100,0.00812044,-0.02248449,-0.00000032,-0.00853
 416,-0.01816791,-0.00000089,-0.00126809,0.00431743,0.00000020,-0.01464
 672,-0.00356287,-0.00000063,-0.00075429,-0.00001393,0.00000019,-0.0007
 8111,0.00026506,0.,-0.09319130,-0.19541733,-0.00000327,-0.01143547,-0.
 06329282,-0.00000159,-0.12855759,0.52305658,0.00000031,0.00000074,-0.0
 0385606,0.00000115,-0.00000030,0.00557216,-0.00000025,-0.00000085,0.00
 271983,-0.00000012,0.00000010,0.00198762,-0.00000029,-0.00000012,0.001
 00212,-0.00000005,0.,-0.00029067,-0.00000002,0.00000002,-0.00002401,-0
 .00000253,-0.00000308,-0.02189547,-0.00000029,-0.00000109,0.00282436,0
 .00000243,0.00000527,0.01848833,0.00772361,0.00091659,0.00000036,0.002
 10345,-0.00740362,-0.00000006,-0.00175547,-0.00174426,-0.00000007,0.00
 205477,0.00215056,0.00000006,-0.00675085,0.00174822,-0.00000026,-0.000
 01405,0.00021215,0.00000002,-0.00009877,0.00044801,0.00000002,0.021716
 72,-0.00810778,0.00000021,-0.00364321,-0.00476582,-0.00000022,-0.27366
 401,0.23396990,-0.00000032,0.25225412,0.00038738,-0.00102193,-0.000000
 06,-0.00117869,-0.00134923,0.00000003,0.00051636,-0.00034246,0.0000000
 1,0.00121954,0.00045331,0.,0.00070787,0.00042753,0.00000004,0.00010095
 ,0.00007801,0.,0.00021389,0.00004805,0.,0.02571276,-0.03966267,-0.0000
 0053,-0.00308158,-0.00374580,-0.00000005,0.19245647,-0.24627231,-0.000
 00069,-0.21727073,0.29141625,0.00000016,-0.00000008,-0.00004196,-0.000
 00022,-0.00000010,0.00208796,0.00000004,0.00000015,-0.00074176,0.00000
 004,0.,-0.00008927,0.00000003,0.,-0.00137905,0.,0.,0.00007489,0.,0.,0.
 00021808,0.00000071,-0.00000080,-0.00211306,-0.00000008,-0.00000044,0.
 00290467,-0.00000096,0.00000003,-0.00644924,0.00000028,0.00000125,0.00
 557437,-0.01546626,0.02231823,0.00000037,-0.00670088,-0.00137998,-0.00
 000018,-0.00076809,-0.00307220,-0.00000004,0.00929029,-0.00550862,-0.0
 0000005,-0.20017745,0.14735940,0.00000035,0.00071244,0.00009576,-0.000
 00001,-0.00023722,0.00085212,0.00000002,0.00195451,0.00127739,-0.00000
 003,-0.00151776,0.00102830,0.00000003,-0.00043665,-0.00052116,-0.00000
 001,0.00007367,0.00021579,0.,0.21327340,-0.00607913,0.01052801,0.00000
 020,-0.00425417,0.00128232,-0.00000015,-0.00288938,-0.00481327,0.00000
 005,0.02152088,-0.00833215,-0.00000027,0.15379888,-0.21880628,-0.00000
 093,0.00129288,0.00016182,0.,-0.00057155,0.00062693,0.00000002,0.00004
 859,0.00077223,-0.00000003,-0.00018495,0.00016525,0.00000002,0.0001362
 0,-0.00012153,0.,-0.00015322,-0.00002876,0.,-0.16266502,0.21856543,-0.
 00000051,0.00000061,-0.00523377,0.,-0.00000028,0.00462478,0.00000027,-
 0.00000019,0.00355424,-0.00000018,0.00000028,0.00197891,0.00000096,-0.
 00000153,-0.02356599,0.00000002,-0.00000002,0.00133206,-0.00000001,0.0
 0000001,-0.00297899,-0.00000007,0.00000005,0.00069907,-0.00000001,-0.0
 0000001,0.00046726,0.00000001,0.,-0.00007897,-0.00000001,0.,-0.0000456
 3,-0.00000046,0.00000108,0.01924705\\-0.00006075,0.00004589,-0.0000020
 3,0.00006438,-0.00007689,-0.00000048,0.00003171,-0.00004904,0.00000185
 ,-0.00000883,0.00006884,-0.00000268,0.00001136,-0.00000342,0.00000320,
 -0.00000867,-0.00000210,0.00000013,0.00000569,0.00001389,-0.00000046,0
 .00002920,-0.00021222,0.00000022,-0.00008788,0.00011733,0.00000013,0.0
 0006588,0.00005307,-0.00000028,-0.00002971,0.00004508,0.00000013,-0.00
 001238,-0.00000042,0.00000026\\\@


 The most important thing in communication is to hear what isn't being said.
 -- Peter F. Drucker
 Job cpu time:       0 days  0 hours 42 minutes 13.5 seconds.
 Elapsed time:       0 days  0 hours  2 minutes  7.7 seconds.
 File lengths (MBytes):  RWF=    102 Int=      0 D2E=      0 Chk=      8 Scr=      1
 Normal termination of Gaussian 16 at Sun Nov  5 01:56:48 2023.
