 Entering Gaussian System, Link 0=/opt/soft/g16/g16
 Initial command:
 /opt/soft/g16/l1.exe "/scratch/gongke2021/bizuo-PC/Gau-14651.inp" -scrdir="/scratch/gongke2021/bizuo-PC/"
 Entering Link 1 = /opt/soft/g16/l1.exe PID=     14652.
  
 Copyright (c) 1988,1990,1992,1993,1995,1998,2003,2009,2016,
            Gaussian, Inc.  All Rights Reserved.
  
 This is part of the Gaussian(R) 16 program.  It is based on
 the Gaussian(R) 09 system (copyright 2009, Gaussian, Inc.),
 the Gaussian(R) 03 system (copyright 2003, Gaussian, Inc.),
 the Gaussian(R) 98 system (copyright 1998, Gaussian, Inc.),
 the Gaussian(R) 94 system (copyright 1995, Gaussian, Inc.),
 the Gaussian 92(TM) system (copyright 1992, Gaussian, Inc.),
 the Gaussian 90(TM) system (copyright 1990, Gaussian, Inc.),
 the Gaussian 88(TM) system (copyright 1988, Gaussian, Inc.),
 the Gaussian 86(TM) system (copyright 1986, Carnegie Mellon
 University), and the Gaussian 82(TM) system (copyright 1983,
 Carnegie Mellon University). Gaussian is a federally registered
 trademark of Gaussian, Inc.
  
 This software contains proprietary and confidential information,
 including trade secrets, belonging to Gaussian, Inc.
  
 This software is provided under written license and may be
 used, copied, transmitted, or stored only in accord with that
 written license.
  
 The following legend is applicable only to US Government
 contracts under FAR:
  
                    RESTRICTED RIGHTS LEGEND
  
 Use, reproduction and disclosure by the US Government is
 subject to restrictions as set forth in subparagraphs (a)
 and (c) of the Commercial Computer Software - Restricted
 Rights clause in FAR 52.227-19.
  
 Gaussian, Inc.
 340 Quinnipiac St., Bldg. 40, Wallingford CT 06492
  
  
 ---------------------------------------------------------------
 Warning -- This program may not be used in any manner that
 competes with the business of Gaussian, Inc. or will provide
 assistance to any competitor of Gaussian, Inc.  The licensee
 of this program is prohibited from giving any competitor of
 Gaussian, Inc. access to this program.  By using this program,
 the user acknowledges that Gaussian, Inc. is engaged in the
 business of creating and licensing software in the field of
 computational chemistry and represents and warrants to the
 licensee that it is not a competitor of Gaussian, Inc. and that
 it will not use this program in any manner prohibited above.
 ---------------------------------------------------------------
  

 Cite this work as:
 Gaussian 16, Revision A.03,
 M. J. Frisch, G. W. Trucks, H. B. Schlegel, G. E. Scuseria, 
 M. A. Robb, J. R. Cheeseman, G. Scalmani, V. Barone, 
 G. A. Petersson, H. Nakatsuji, X. Li, M. Caricato, A. V. Marenich, 
 J. Bloino, B. G. Janesko, R. Gomperts, B. Mennucci, H. P. Hratchian, 
 J. V. Ortiz, A. F. Izmaylov, J. L. Sonnenberg, D. Williams-Young, 
 F. Ding, F. Lipparini, F. Egidi, J. Goings, B. Peng, A. Petrone, 
 T. Henderson, D. Ranasinghe, V. G. Zakrzewski, J. Gao, N. Rega, 
 G. Zheng, W. Liang, M. Hada, M. Ehara, K. Toyota, R. Fukuda, 
 J. Hasegawa, M. Ishida, T. Nakajima, Y. Honda, O. Kitao, H. Nakai, 
 T. Vreven, K. Throssell, J. A. Montgomery, Jr., J. E. Peralta, 
 F. Ogliaro, M. J. Bearpark, J. J. Heyd, E. N. Brothers, K. N. Kudin, 
 V. N. Staroverov, T. A. Keith, R. Kobayashi, J. Normand, 
 K. Raghavachari, A. P. Rendell, J. C. Burant, S. S. Iyengar, 
 J. Tomasi, M. Cossi, J. M. Millam, M. Klene, C. Adamo, R. Cammi, 
 J. W. Ochterski, R. L. Martin, K. Morokuma, O. Farkas, 
 J. B. Foresman, and D. J. Fox, Gaussian, Inc., Wallingford CT, 2016.
 
 ******************************************
 Gaussian 16:  ES64L-G16RevA.03 25-Dec-2016
                 6-Nov-2023 
 ******************************************
 %mem=10GB
 %nprocshared=24
 Will use up to   24 processors via shared memory.
 -----------------------------------------------------
 # opt freq 6-31+g(d,p) scrf=(smd,solvent=water) m062x
 -----------------------------------------------------
 1/18=20,19=15,26=3,38=1/1,3;
 2/9=110,12=2,17=6,18=5,40=1/2;
 3/5=1,6=6,7=111,11=2,25=1,30=1,70=32201,71=1,72=1,74=-55/1,2,3;
 4//1;
 5/5=2,38=5,53=1/2;
 6/7=2,8=2,9=2,10=2,28=1/1;
 7//1,2,3,16;
 1/18=20,19=15,26=3/3(2);
 2/9=110/2;
 99//99;
 2/9=110/2;
 3/5=1,6=6,7=111,11=2,25=1,30=1,70=32205,71=1,72=1,74=-55/1,2,3;
 4/5=5,16=3,69=1/1;
 5/5=2,38=5,53=1/2;
 7//1,2,3,16;
 1/18=20,19=15,26=3/3(-5);
 2/9=110/2;
 6/7=2,8=2,9=2,10=2,19=2,28=1/1;
 99/9=1/99;
 -------------------
 Title Card Required
 -------------------
 Symbolic Z-matrix:
 Charge = -1 Multiplicity = 2
 N                    -0.2617   -1.03444  -0.12299 
 N                    -0.47333   0.30074  -0.00907 
 C                    -1.80503   0.6036    0.10012 
 C                    -2.4796   -0.58558   0.05992 
 C                    -1.46661  -1.57107  -0.0807 
 H                    -2.13571   1.62667   0.19657 
 H                    -3.54636  -0.73706   0.1219 
 C                     0.57434   1.24945  -0.02511 
 O                     0.30643   2.43602   0.0125 
 O                     1.79433   0.7935   -0.08719 
 H                     1.65937  -2.09695   0.09549 
 H                    -1.57855  -2.64451  -0.15317 
 O                     2.50382  -1.62435   0.01745 
 H                     1.97365  -0.22118  -0.03309 
 H                     2.99749  -1.81073   0.82919 
 
 Add virtual bond connecting atoms H14        and O13        Dist= 2.84D+00.

 GradGradGradGradGradGradGradGradGradGradGradGradGradGradGradGradGradGrad
 Berny optimization.
 Initialization pass.
                           ----------------------------
                           !    Initial Parameters    !
                           ! (Angstroms and Degrees)  !
 --------------------------                            --------------------------
 ! Name  Definition              Value          Derivative Info.                !
 --------------------------------------------------------------------------------
 ! R1    R(1,2)                  1.3566         estimate D2E/DX2                !
 ! R2    R(1,5)                  1.3197         estimate D2E/DX2                !
 ! R3    R(2,3)                  1.3701         estimate D2E/DX2                !
 ! R4    R(2,8)                  1.4135         estimate D2E/DX2                !
 ! R5    R(3,4)                  1.3678         estimate D2E/DX2                !
 ! R6    R(3,6)                  1.0795         estimate D2E/DX2                !
 ! R7    R(4,5)                  1.4202         estimate D2E/DX2                !
 ! R8    R(4,7)                  1.0792         estimate D2E/DX2                !
 ! R9    R(5,12)                 1.0817         estimate D2E/DX2                !
 ! R10   R(8,9)                  1.217          estimate D2E/DX2                !
 ! R11   R(8,10)                 1.3039         estimate D2E/DX2                !
 ! R12   R(10,14)                1.0318         estimate D2E/DX2                !
 ! R13   R(11,13)                0.9708         estimate D2E/DX2                !
 ! R14   R(13,14)                1.5008         estimate D2E/DX2                !
 ! R15   R(13,15)                0.9682         estimate D2E/DX2                !
 ! A1    A(2,1,5)              104.7788         estimate D2E/DX2                !
 ! A2    A(1,2,3)              112.078          estimate D2E/DX2                !
 ! A3    A(1,2,8)              122.9562         estimate D2E/DX2                !
 ! A4    A(3,2,8)              124.9587         estimate D2E/DX2                !
 ! A5    A(2,3,4)              106.5497         estimate D2E/DX2                !
 ! A6    A(2,3,6)              120.9549         estimate D2E/DX2                !
 ! A7    A(4,3,6)              132.4953         estimate D2E/DX2                !
 ! A8    A(3,4,5)              104.7395         estimate D2E/DX2                !
 ! A9    A(3,4,7)              127.4325         estimate D2E/DX2                !
 ! A10   A(5,4,7)              127.828          estimate D2E/DX2                !
 ! A11   A(1,5,4)              111.8535         estimate D2E/DX2                !
 ! A12   A(1,5,12)             119.7275         estimate D2E/DX2                !
 ! A13   A(4,5,12)             128.419          estimate D2E/DX2                !
 ! A14   A(2,8,9)              119.3986         estimate D2E/DX2                !
 ! A15   A(2,8,10)             117.3448         estimate D2E/DX2                !
 ! A16   A(9,8,10)             123.2557         estimate D2E/DX2                !
 ! A17   A(8,10,14)            120.2644         estimate D2E/DX2                !
 ! A18   A(11,13,14)            98.6595         estimate D2E/DX2                !
 ! A19   A(11,13,15)           106.4038         estimate D2E/DX2                !
 ! A20   A(14,13,15)           112.8504         estimate D2E/DX2                !
 ! A21   L(10,14,13,1,-1)      190.6119         estimate D2E/DX2                !
 ! A22   L(10,14,13,1,-2)      178.4738         estimate D2E/DX2                !
 ! D1    D(5,1,2,3)             -0.1929         estimate D2E/DX2                !
 ! D2    D(5,1,2,8)           -179.2697         estimate D2E/DX2                !
 ! D3    D(2,1,5,4)              0.0851         estimate D2E/DX2                !
 ! D4    D(2,1,5,12)           179.991          estimate D2E/DX2                !
 ! D5    D(1,2,3,4)              0.2269         estimate D2E/DX2                !
 ! D6    D(1,2,3,6)           -179.8902         estimate D2E/DX2                !
 ! D7    D(8,2,3,4)            179.2816         estimate D2E/DX2                !
 ! D8    D(8,2,3,6)             -0.8354         estimate D2E/DX2                !
 ! D9    D(1,2,8,9)            176.232          estimate D2E/DX2                !
 ! D10   D(1,2,8,10)            -3.4323         estimate D2E/DX2                !
 ! D11   D(3,2,8,9)             -2.724          estimate D2E/DX2                !
 ! D12   D(3,2,8,10)           177.6116         estimate D2E/DX2                !
 ! D13   D(2,3,4,5)             -0.1592         estimate D2E/DX2                !
 ! D14   D(2,3,4,7)            179.8304         estimate D2E/DX2                !
 ! D15   D(6,3,4,5)            179.977          estimate D2E/DX2                !
 ! D16   D(6,3,4,7)             -0.0335         estimate D2E/DX2                !
 ! D17   D(3,4,5,1)              0.0479         estimate D2E/DX2                !
 ! D18   D(3,4,5,12)          -179.8478         estimate D2E/DX2                !
 ! D19   D(7,4,5,1)           -179.9417         estimate D2E/DX2                !
 ! D20   D(7,4,5,12)             0.1627         estimate D2E/DX2                !
 ! D21   D(2,8,10,14)           -5.7608         estimate D2E/DX2                !
 ! D22   D(9,8,10,14)          174.5889         estimate D2E/DX2                !
 ! D23   D(8,10,13,11)           0.9916         estimate D2E/DX2                !
 ! D24   D(8,10,13,15)        -112.6547         estimate D2E/DX2                !
 ! D25   D(11,13,14,15)        111.9728         estimate D2E/DX2                !
 --------------------------------------------------------------------------------
 Trust Radius=3.00D-01 FncErr=1.00D-07 GrdErr=1.00D-06 EigMax=2.50D+02 EigMin=1.00D-04
 Number of steps in this run=     72 maximum allowed number of steps=    100.
 GradGradGradGradGradGradGradGradGradGradGradGradGradGradGradGradGradGrad

                          Input orientation:                          
 ---------------------------------------------------------------------
 Center     Atomic      Atomic             Coordinates (Angstroms)
 Number     Number       Type             X           Y           Z
 ---------------------------------------------------------------------
      1          7           0       -0.261703   -1.034442   -0.122985
      2          7           0       -0.473326    0.300741   -0.009066
      3          6           0       -1.805032    0.603595    0.100124
      4          6           0       -2.479598   -0.585581    0.059917
      5          6           0       -1.466606   -1.571067   -0.080696
      6          1           0       -2.135709    1.626666    0.196572
      7          1           0       -3.546363   -0.737063    0.121896
      8          6           0        0.574339    1.249446   -0.025114
      9          8           0        0.306433    2.436019    0.012500
     10          8           0        1.794331    0.793495   -0.087187
     11          1           0        1.659370   -2.096951    0.095491
     12          1           0       -1.578552   -2.644508   -0.153171
     13          8           0        2.503823   -1.624350    0.017447
     14          1           0        1.973654   -0.221181   -0.033093
     15          1           0        2.997491   -1.810725    0.829186
 ---------------------------------------------------------------------
                    Distance matrix (angstroms):
                    1          2          3          4          5
     1  N    0.000000
     2  N    1.356641   0.000000
     3  C    2.261594   1.370067   0.000000
     4  C    2.270240   2.194414   1.367770   0.000000
     5  C    1.319676   2.120236   2.208253   1.420249   0.000000
     6  H    3.270399   2.136324   1.079502   2.242983   3.278730
     7  H    3.307173   3.246189   2.197742   1.079248   2.249888
     8  C    2.434068   1.413471   2.468646   3.563858   3.481930
     9  O    3.519266   2.273302   2.797095   4.110266   4.382818
    10  O    2.751347   2.321891   3.609233   4.493324   4.028015
    11  H    2.206168   3.210647   4.392613   4.406423   3.174795
    12  H    2.080220   3.149092   3.265827   2.257536   1.081693
    13  O    2.831227   3.545433   4.851475   5.090710   3.971999
    14  H    2.380398   2.502137   3.869944   4.469104   3.695923
    15  H    3.483043   4.148195   5.424454   5.664915   4.562180
                    6          7          8          9         10
     6  H    0.000000
     7  H    2.753677   0.000000
     8  C    2.745141   4.576900   0.000000
     9  O    2.579340   4.992440   1.217023   0.000000
    10  O    4.027395   5.559617   1.303888   2.218482   0.000000
    11  H    5.317722   5.380488   3.519973   4.731294   2.899356
    12  H    4.321536   2.754322   4.451316   5.421473   4.816696
    13  O    5.668020   6.115794   3.461708   4.616833   2.521964
    14  H    4.511557   5.546237   2.029998   3.137263   1.031819
    15  H    6.210121   6.668961   3.995765   5.093486   3.011527
                   11         12         13         14         15
    11  H    0.000000
    12  H    3.293295   0.000000
    13  O    0.970847   4.211368   0.000000
    14  H    1.906258   4.301755   1.500839   0.000000
    15  H    1.552676   4.753987   0.968176   2.078080   0.000000
 Stoichiometry    C4H6N2O3(1-,2)
 Framework group  C1[X(C4H6N2O3)]
 Deg. of freedom    39
 Full point group                 C1      NOp   1
 Largest Abelian subgroup         C1      NOp   1
 Largest concise Abelian subgroup C1      NOp   1
                         Standard orientation:                         
 ---------------------------------------------------------------------
 Center     Atomic      Atomic             Coordinates (Angstroms)
 Number     Number       Type             X           Y           Z
 ---------------------------------------------------------------------
      1          7           0       -0.261703   -1.034442   -0.122985
      2          7           0       -0.473326    0.300741   -0.009066
      3          6           0       -1.805032    0.603595    0.100124
      4          6           0       -2.479598   -0.585581    0.059917
      5          6           0       -1.466606   -1.571067   -0.080696
      6          1           0       -2.135709    1.626666    0.196572
      7          1           0       -3.546363   -0.737063    0.121896
      8          6           0        0.574339    1.249446   -0.025114
      9          8           0        0.306433    2.436019    0.012500
     10          8           0        1.794331    0.793495   -0.087187
     11          1           0        1.659370   -2.096951    0.095491
     12          1           0       -1.578552   -2.644508   -0.153171
     13          8           0        2.503823   -1.624350    0.017447
     14          1           0        1.973654   -0.221181   -0.033093
     15          1           0        2.997491   -1.810725    0.829186
 ---------------------------------------------------------------------
 Rotational constants (GHZ):           2.1140592           1.4984155           0.8810057
 Standard basis: 6-31+G(d,p) (6D, 7F)
 There are   201 symmetry adapted cartesian basis functions of A   symmetry.
 There are   201 symmetry adapted basis functions of A   symmetry.
   201 basis functions,   330 primitive gaussians,   201 cartesian basis functions
    35 alpha electrons       34 beta electrons
       nuclear repulsion energy       453.1700052103 Hartrees.
 NAtoms=   15 NActive=   15 NUniq=   15 SFac= 1.00D+00 NAtFMM=   60 NAOKFM=F Big=F
 Integral buffers will be    131072 words long.
 Raffenetti 2 integral format.
 Two-electron integral symmetry is turned on.
 ------------------------------------------------------------------------------
 Polarizable Continuum Model (PCM)
 =================================
 Model                : PCM.
 Atomic radii         : SMD-Coulomb.
 Polarization charges : Total charges.
 Charge compensation  : None.
 Solution method      : On-the-fly selection.
 Cavity type          : VdW (van der Waals Surface) (Alpha=1.000).
 Cavity algorithm     : GePol (No added spheres)
                        Default sphere list used, NSphG=   15.
                        Lebedev-Laikov grids with approx.  5.0 points / Ang**2.
                        Smoothing algorithm: York/Karplus (Gamma=1.0000).
                        Polarization charges: spherical gaussians, with
                                              point-specific exponents (IZeta= 3).
                        Self-potential: point-specific (ISelfS= 7).
                        Self-field    : sphere-specific E.n sum rule (ISelfD= 2).
 1st derivatives      : Analytical E(r).r(x)/FMM algorithm (CHGder, D1EAlg=3).
                        Cavity 1st derivative terms included.
 Solvent              : Water, Eps=  78.355300 Eps(inf)=   1.777849
 ------------------------------------------------------------------------------
 Spheres list:
 ISph  on   Nord     Re0    Alpha      Xe            Ye            Ze
    1   N      1    1.8900  1.000     -0.261703     -1.034442     -0.122985
    2   N      2    1.8900  1.000     -0.473326      0.300741     -0.009066
    3   C      3    1.8500  1.000     -1.805032      0.603595      0.100124
    4   C      4    1.8500  1.000     -2.479598     -0.585581      0.059917
    5   C      5    1.8500  1.000     -1.466606     -1.571067     -0.080696
    6   H      6    1.2000  1.000     -2.135709      1.626666      0.196572
    7   H      7    1.2000  1.000     -3.546363     -0.737063      0.121896
    8   C      8    1.8500  1.000      0.574339      1.249446     -0.025114
    9   O      9    1.5200  1.000      0.306433      2.436019      0.012500
   10   O     10    1.5200  1.000      1.794331      0.793495     -0.087187
   11   H     11    1.2000  1.000      1.659370     -2.096951      0.095491
   12   H     12    1.2000  1.000     -1.578552     -2.644508     -0.153171
   13   O     13    1.5200  1.000      2.503823     -1.624350      0.017447
   14   H     14    1.2000  1.000      1.973654     -0.221181     -0.033093
   15   H     15    1.2000  1.000      2.997491     -1.810725      0.829186
 ------------------------------------------------------------------------------
 ------------------------------------------------------------------------------
 Atomic radii for non-electrostatic terms: SMD-CDS.
 ------------------------------------------------------------------------------
 Nuclear repulsion after PCM non-electrostatic terms =      453.1792143103 Hartrees.
 One-electron integrals computed using PRISM.
 NBasis=   201 RedAO= T EigKep=  3.46D-05  NBF=   201
 NBsUse=   201 1.00D-06 EigRej= -1.00D+00 NBFU=   201
 ExpMin= 4.38D-02 ExpMax= 5.48D+03 ExpMxC= 8.25D+02 IAcc=3 IRadAn=         5 AccDes= 0.00D+00
 Harris functional with IExCor= 1009 and IRadAn=       5 diagonalized for initial guess.
 HarFok:  IExCor= 1009 AccDes= 0.00D+00 IRadAn=         5 IDoV= 1 UseB2=F ITyADJ=14
 ICtDFT=  3500011 ScaDFX=  1.000000  1.000000  1.000000  1.000000
 FoFCou: FMM=F IPFlag=           0 FMFlag=      100000 FMFlg1=           0
         NFxFlg=           0 DoJE=T BraDBF=F KetDBF=T FulRan=T
         wScrn=  0.000000 ICntrl=       500 IOpCl=  0 I1Cent=   200000004 NGrid=           0
         NMat0=    1 NMatS0=      1 NMatT0=    0 NMatD0=    1 NMtDS0=    0 NMtDT0=    0
 Petite list used in FoFCou.
 Initial guess <Sx>= 0.0000 <Sy>= 0.0000 <Sz>= 0.5000 <S**2>= 0.7500 S= 0.5000
 Requested convergence on RMS density matrix=1.00D-08 within 128 cycles.
 Requested convergence on MAX density matrix=1.00D-06.
 Requested convergence on             energy=1.00D-06.
 No special actions if energy rises.
 Inv3:  Mode=1 IEnd=     4177200.
 Iteration    1 A*A^-1 deviation from unit magnitude is 3.00D-15 for    376.
 Iteration    1 A*A^-1 deviation from orthogonality  is 2.13D-15 for    376     15.
 Iteration    1 A^-1*A deviation from unit magnitude is 3.00D-15 for    376.
 Iteration    1 A^-1*A deviation from orthogonality  is 1.22D-15 for   1030    817.
 Error on total polarization charges =  0.06758
 SCF Done:  E(UM062X) =  -491.122682797     A.U. after   19 cycles
            NFock= 19  Conv=0.29D-08     -V/T= 2.0076
 <Sx>= 0.0000 <Sy>= 0.0000 <Sz>= 0.5000 <S**2>= 0.7602 S= 0.5051
 <L.S>=  0.00000000000    
 SMD-CDS (non-electrostatic) energy       (kcal/mol) =       5.78
 (included in total energy above)
 Annihilation of the first spin contaminant:
 S**2 before annihilation     0.7602,   after     0.7501

 **********************************************************************

            Population analysis using the SCF density.

 **********************************************************************

 Orbital symmetries:
 Alpha Orbitals:
       Occupied  (A) (A) (A) (A) (A) (A) (A) (A) (A) (A) (A) (A)
                 (A) (A) (A) (A) (A) (A) (A) (A) (A) (A) (A) (A)
                 (A) (A) (A) (A) (A) (A) (A) (A) (A) (A) (A)
       Virtual   (A) (A) (A) (A) (A) (A) (A) (A) (A) (A) (A) (A)
                 (A) (A) (A) (A) (A) (A) (A) (A) (A) (A) (A) (A)
                 (A) (A) (A) (A) (A) (A) (A) (A) (A) (A) (A) (A)
                 (A) (A) (A) (A) (A) (A) (A) (A) (A) (A) (A) (A)
                 (A) (A) (A) (A) (A) (A) (A) (A) (A) (A) (A) (A)
                 (A) (A) (A) (A) (A) (A) (A) (A) (A) (A) (A) (A)
                 (A) (A) (A) (A) (A) (A) (A) (A) (A) (A) (A) (A)
                 (A) (A) (A) (A) (A) (A) (A) (A) (A) (A) (A) (A)
                 (A) (A) (A) (A) (A) (A) (A) (A) (A) (A) (A) (A)
                 (A) (A) (A) (A) (A) (A) (A) (A) (A) (A) (A) (A)
                 (A) (A) (A) (A) (A) (A) (A) (A) (A) (A) (A) (A)
                 (A) (A) (A) (A) (A) (A) (A) (A) (A) (A) (A) (A)
                 (A) (A) (A) (A) (A) (A) (A) (A) (A) (A) (A) (A)
                 (A) (A) (A) (A) (A) (A) (A) (A) (A) (A)
 Beta  Orbitals:
       Occupied  (A) (A) (A) (A) (A) (A) (A) (A) (A) (A) (A) (A)
                 (A) (A) (A) (A) (A) (A) (A) (A) (A) (A) (A) (A)
                 (A) (A) (A) (A) (A) (A) (A) (A) (A) (A)
       Virtual   (A) (A) (A) (A) (A) (A) (A) (A) (A) (A) (A) (A)
                 (A) (A) (A) (A) (A) (A) (A) (A) (A) (A) (A) (A)
                 (A) (A) (A) (A) (A) (A) (A) (A) (A) (A) (A) (A)
                 (A) (A) (A) (A) (A) (A) (A) (A) (A) (A) (A) (A)
                 (A) (A) (A) (A) (A) (A) (A) (A) (A) (A) (A) (A)
                 (A) (A) (A) (A) (A) (A) (A) (A) (A) (A) (A) (A)
                 (A) (A) (A) (A) (A) (A) (A) (A) (A) (A) (A) (A)
                 (A) (A) (A) (A) (A) (A) (A) (A) (A) (A) (A) (A)
                 (A) (A) (A) (A) (A) (A) (A) (A) (A) (A) (A) (A)
                 (A) (A) (A) (A) (A) (A) (A) (A) (A) (A) (A) (A)
                 (A) (A) (A) (A) (A) (A) (A) (A) (A) (A) (A) (A)
                 (A) (A) (A) (A) (A) (A) (A) (A) (A) (A) (A) (A)
                 (A) (A) (A) (A) (A) (A) (A) (A) (A) (A) (A) (A)
                 (A) (A) (A) (A) (A) (A) (A) (A) (A) (A) (A)
 The electronic state is 2-A.
 Alpha  occ. eigenvalues --  -19.66288 -19.65195 -19.60335 -14.81780 -14.74806
 Alpha  occ. eigenvalues --  -10.66572 -10.54065 -10.53975 -10.51956  -1.21809
 Alpha  occ. eigenvalues --   -1.15074  -1.13257  -1.11461  -0.90952  -0.85622
 Alpha  occ. eigenvalues --   -0.71956  -0.67634  -0.65683  -0.62232  -0.59793
 Alpha  occ. eigenvalues --   -0.55135  -0.53633  -0.51259  -0.49753  -0.47513
 Alpha  occ. eigenvalues --   -0.47015  -0.45176  -0.43609  -0.40558  -0.38657
 Alpha  occ. eigenvalues --   -0.35395  -0.35085  -0.31268  -0.30152  -0.10113
 Alpha virt. eigenvalues --    0.02884   0.04626   0.05114   0.05817   0.06826
 Alpha virt. eigenvalues --    0.07351   0.07871   0.08950   0.10892   0.11205
 Alpha virt. eigenvalues --    0.11293   0.12058   0.12701   0.13506   0.15420
 Alpha virt. eigenvalues --    0.15913   0.17970   0.18320   0.19741   0.20322
 Alpha virt. eigenvalues --    0.21744   0.22438   0.23022   0.23428   0.24338
 Alpha virt. eigenvalues --    0.25649   0.26669   0.27243   0.27542   0.27960
 Alpha virt. eigenvalues --    0.28556   0.29086   0.29696   0.30555   0.31489
 Alpha virt. eigenvalues --    0.31902   0.32932   0.34341   0.35938   0.36512
 Alpha virt. eigenvalues --    0.36836   0.38815   0.39474   0.41597   0.43361
 Alpha virt. eigenvalues --    0.43984   0.45529   0.48430   0.51010   0.52490
 Alpha virt. eigenvalues --    0.55879   0.67343   0.74613   0.75637   0.77996
 Alpha virt. eigenvalues --    0.78410   0.80608   0.82122   0.86549   0.88065
 Alpha virt. eigenvalues --    0.93651   0.94415   0.96878   0.98288   0.98949
 Alpha virt. eigenvalues --    1.02189   1.04044   1.05647   1.05943   1.07908
 Alpha virt. eigenvalues --    1.14467   1.15749   1.16589   1.19422   1.19982
 Alpha virt. eigenvalues --    1.23911   1.24411   1.25782   1.27791   1.29117
 Alpha virt. eigenvalues --    1.29940   1.31641   1.33855   1.36206   1.37828
 Alpha virt. eigenvalues --    1.40315   1.42548   1.42684   1.43614   1.45963
 Alpha virt. eigenvalues --    1.46317   1.48308   1.50894   1.55219   1.55937
 Alpha virt. eigenvalues --    1.56874   1.60306   1.62300   1.64473   1.68144
 Alpha virt. eigenvalues --    1.69362   1.72449   1.82979   1.84335   1.86142
 Alpha virt. eigenvalues --    1.90173   1.93830   1.96401   1.98529   2.01480
 Alpha virt. eigenvalues --    2.01623   2.04093   2.10087   2.10283   2.14454
 Alpha virt. eigenvalues --    2.19702   2.20538   2.25538   2.26830   2.28406
 Alpha virt. eigenvalues --    2.29474   2.32967   2.37955   2.43337   2.43957
 Alpha virt. eigenvalues --    2.45900   2.47495   2.55595   2.56662   2.57503
 Alpha virt. eigenvalues --    2.58747   2.59504   2.60183   2.64545   2.69916
 Alpha virt. eigenvalues --    2.72987   2.76070   2.76211   2.79864   2.83384
 Alpha virt. eigenvalues --    2.86016   2.90755   2.94896   2.97869   3.00826
 Alpha virt. eigenvalues --    3.06596   3.08836   3.16323   3.18133   3.26507
 Alpha virt. eigenvalues --    3.29325   3.39239   3.44804   3.53441   3.64001
 Alpha virt. eigenvalues --    3.78611   3.83849   4.15659   4.29356   4.34023
 Alpha virt. eigenvalues --    4.40112   4.47464   4.57603   4.64219   4.80554
 Alpha virt. eigenvalues --    4.82313
  Beta  occ. eigenvalues --  -19.66286 -19.65099 -19.60118 -14.81827 -14.74473
  Beta  occ. eigenvalues --  -10.66338 -10.53997 -10.53730 -10.51981  -1.21273
  Beta  occ. eigenvalues --   -1.15020  -1.12789  -1.10879  -0.90228  -0.84983
  Beta  occ. eigenvalues --   -0.71200  -0.67217  -0.65348  -0.62113  -0.59153
  Beta  occ. eigenvalues --   -0.53566  -0.53040  -0.50919  -0.49570  -0.46743
  Beta  occ. eigenvalues --   -0.46163  -0.44932  -0.43234  -0.40449  -0.36704
  Beta  occ. eigenvalues --   -0.35093  -0.34250  -0.29529  -0.27734
  Beta virt. eigenvalues --    0.02140   0.03149   0.03991   0.04458   0.04883
  Beta virt. eigenvalues --    0.06064   0.06710   0.07212   0.09062   0.09742
  Beta virt. eigenvalues --    0.10499   0.10505   0.11365   0.12479   0.13722
  Beta virt. eigenvalues --    0.14329   0.15314   0.17126   0.18191   0.19375
  Beta virt. eigenvalues --    0.20254   0.20923   0.22396   0.22768   0.22994
  Beta virt. eigenvalues --    0.23939   0.25315   0.26293   0.26521   0.27130
  Beta virt. eigenvalues --    0.28058   0.28433   0.28709   0.29432   0.30485
  Beta virt. eigenvalues --    0.31268   0.31866   0.33105   0.34035   0.35238
  Beta virt. eigenvalues --    0.36316   0.36785   0.38160   0.39070   0.41321
  Beta virt. eigenvalues --    0.42877   0.43474   0.45750   0.47905   0.51408
  Beta virt. eigenvalues --    0.52688   0.56196   0.67656   0.75324   0.75971
  Beta virt. eigenvalues --    0.78286   0.79302   0.81370   0.83307   0.86502
  Beta virt. eigenvalues --    0.88529   0.93848   0.94684   0.97085   0.98512
  Beta virt. eigenvalues --    0.98984   1.02596   1.04112   1.05924   1.07090
  Beta virt. eigenvalues --    1.08132   1.14479   1.15901   1.16782   1.19537
  Beta virt. eigenvalues --    1.20410   1.24128   1.24536   1.26259   1.28089
  Beta virt. eigenvalues --    1.29690   1.30167   1.31918   1.34211   1.36678
  Beta virt. eigenvalues --    1.37916   1.41108   1.42785   1.43294   1.44152
  Beta virt. eigenvalues --    1.46191   1.47103   1.48493   1.52079   1.55286
  Beta virt. eigenvalues --    1.56084   1.57855   1.60530   1.62361   1.64583
  Beta virt. eigenvalues --    1.68241   1.69537   1.72650   1.83171   1.84777
  Beta virt. eigenvalues --    1.86366   1.90301   1.93995   1.96979   1.98993
  Beta virt. eigenvalues --    2.01930   2.02418   2.04446   2.10669   2.10887
  Beta virt. eigenvalues --    2.15020   2.20279   2.21113   2.25563   2.27228
  Beta virt. eigenvalues --    2.29365   2.29921   2.33781   2.38456   2.43972
  Beta virt. eigenvalues --    2.44519   2.46487   2.48216   2.56119   2.57069
  Beta virt. eigenvalues --    2.57683   2.59277   2.60111   2.61171   2.64981
  Beta virt. eigenvalues --    2.70718   2.73348   2.76824   2.77313   2.80828
  Beta virt. eigenvalues --    2.83758   2.86540   2.91347   2.95471   2.98396
  Beta virt. eigenvalues --    3.01363   3.07047   3.08942   3.17131   3.18563
  Beta virt. eigenvalues --    3.27151   3.29771   3.40003   3.45027   3.54405
  Beta virt. eigenvalues --    3.64050   3.78685   3.84652   4.15885   4.29552
  Beta virt. eigenvalues --    4.34327   4.40242   4.48430   4.58976   4.65708
  Beta virt. eigenvalues --    4.80544   4.83607
          Condensed to atoms (all electrons):
               1          2          3          4          5          6
     1  N    8.086362  -0.406669   0.032480  -0.049194   0.010163   0.023310
     2  N   -0.406669   7.410218   0.162978  -0.222563   0.210485  -0.055743
     3  C    0.032480   0.162978   5.993047   0.132432  -0.234385   0.432448
     4  C   -0.049194  -0.222563   0.132432   5.548945   0.440247  -0.053513
     5  C    0.010163   0.210485  -0.234385   0.440247   5.493681  -0.005190
     6  H    0.023310  -0.055743   0.432448  -0.053513  -0.005190   0.473462
     7  H    0.013046  -0.006580   0.009834   0.340738  -0.022648  -0.000237
     8  C   -0.107794   0.368845  -0.240693   0.001567   0.014919  -0.007432
     9  O    0.020420  -0.190102  -0.017662   0.030620  -0.002550  -0.004426
    10  O   -0.018815  -0.128973   0.057292   0.000055  -0.002035  -0.000157
    11  H    0.016475   0.003629   0.000603   0.001946  -0.003774  -0.000000
    12  H   -0.073220   0.020906   0.006097  -0.056117   0.425899  -0.000093
    13  O   -0.068614   0.025453   0.011151  -0.011795  -0.002904   0.000019
    14  H    0.021455  -0.008823  -0.002498  -0.000370   0.001035   0.000005
    15  H    0.002577  -0.001934  -0.000326   0.000453   0.000301  -0.000000
               7          8          9         10         11         12
     1  N    0.013046  -0.107794   0.020420  -0.018815   0.016475  -0.073220
     2  N   -0.006580   0.368845  -0.190102  -0.128973   0.003629   0.020906
     3  C    0.009834  -0.240693  -0.017662   0.057292   0.000603   0.006097
     4  C    0.340738   0.001567   0.030620   0.000055   0.001946  -0.056117
     5  C   -0.022648   0.014919  -0.002550  -0.002035  -0.003774   0.425899
     6  H   -0.000237  -0.007432  -0.004426  -0.000157  -0.000000  -0.000093
     7  H    0.487470  -0.001561  -0.000161   0.000035  -0.000001  -0.000449
     8  C   -0.001561   4.715440   0.363450   0.124929  -0.001959   0.000980
     9  O   -0.000161   0.363450   8.629774  -0.084858   0.000036   0.000059
    10  O    0.000035   0.124929  -0.084858   8.643478   0.000175   0.000014
    11  H   -0.000001  -0.001959   0.000036   0.000175   0.268361  -0.000180
    12  H   -0.000449   0.000980   0.000059   0.000014  -0.000180   0.506398
    13  O    0.000014   0.000454  -0.002679  -0.046048   0.267373   0.000193
    14  H   -0.000001  -0.004743   0.005462   0.191610  -0.003817  -0.000004
    15  H   -0.000000   0.000594  -0.000006   0.000148  -0.015601  -0.000004
              13         14         15
     1  N   -0.068614   0.021455   0.002577
     2  N    0.025453  -0.008823  -0.001934
     3  C    0.011151  -0.002498  -0.000326
     4  C   -0.011795  -0.000370   0.000453
     5  C   -0.002904   0.001035   0.000301
     6  H    0.000019   0.000005  -0.000000
     7  H    0.000014  -0.000001  -0.000000
     8  C    0.000454  -0.004743   0.000594
     9  O   -0.002679   0.005462  -0.000006
    10  O   -0.046048   0.191610   0.000148
    11  H    0.267373  -0.003817  -0.015601
    12  H    0.000193  -0.000004  -0.000004
    13  O    8.357063   0.025709   0.285516
    14  H    0.025709   0.242191  -0.003151
    15  H    0.285516  -0.003151   0.276944
          Atomic-Atomic Spin Densities.
               1          2          3          4          5          6
     1  N    0.570661  -0.188872   0.176006  -0.069753  -0.221800  -0.001178
     2  N   -0.188872   0.108539  -0.228978   0.067433   0.084855   0.004764
     3  C    0.176006  -0.228978   0.799802  -0.206808  -0.148058  -0.004783
     4  C   -0.069753   0.067433  -0.206808   0.041275   0.150305  -0.002206
     5  C   -0.221800   0.084855  -0.148058   0.150305   0.246892   0.002164
     6  H   -0.001178   0.004764  -0.004783  -0.002206   0.002164  -0.018176
     7  H   -0.001146   0.000726  -0.004257  -0.001822   0.007068   0.000015
     8  C   -0.063696   0.155937  -0.105501   0.021781   0.019868   0.001095
     9  O    0.013881  -0.043252   0.051851  -0.012589  -0.005711   0.000788
    10  O    0.019914  -0.028187   0.018890  -0.005409  -0.005539   0.000151
    11  H   -0.001190  -0.000261   0.000145   0.000042  -0.000197   0.000000
    12  H    0.001623  -0.000876  -0.002434   0.009505  -0.007270   0.000002
    13  O    0.004602   0.000584  -0.000182  -0.000360   0.000442  -0.000002
    14  H    0.001102  -0.001882  -0.000034   0.000332  -0.000303  -0.000001
    15  H   -0.001040  -0.000301  -0.000267   0.000138   0.000343  -0.000000
               7          8          9         10         11         12
     1  N   -0.001146  -0.063696   0.013881   0.019914  -0.001190   0.001623
     2  N    0.000726   0.155937  -0.043252  -0.028187  -0.000261  -0.000876
     3  C   -0.004257  -0.105501   0.051851   0.018890   0.000145  -0.002434
     4  C   -0.001822   0.021781  -0.012589  -0.005409   0.000042   0.009505
     5  C    0.007068   0.019868  -0.005711  -0.005539  -0.000197  -0.007270
     6  H    0.000015   0.001095   0.000788   0.000151   0.000000   0.000002
     7  H   -0.000828  -0.000195   0.000015   0.000002   0.000000  -0.000019
     8  C   -0.000195   0.464399  -0.144645  -0.086850   0.000048   0.000061
     9  O    0.000015  -0.144645   0.220058   0.023189  -0.000003  -0.000004
    10  O    0.000002  -0.086850   0.023189   0.090722   0.000105   0.000004
    11  H    0.000000   0.000048  -0.000003   0.000105  -0.000095   0.000016
    12  H   -0.000019   0.000061  -0.000004   0.000004   0.000016  -0.007276
    13  O    0.000000  -0.001565   0.000257   0.001191   0.000614  -0.000001
    14  H   -0.000000   0.000356  -0.000171  -0.000445  -0.000062   0.000001
    15  H    0.000000   0.000646  -0.000026  -0.000561   0.000000   0.000000
              13         14         15
     1  N    0.004602   0.001102  -0.001040
     2  N    0.000584  -0.001882  -0.000301
     3  C   -0.000182  -0.000034  -0.000267
     4  C   -0.000360   0.000332   0.000138
     5  C    0.000442  -0.000303   0.000343
     6  H   -0.000002  -0.000001  -0.000000
     7  H    0.000000  -0.000000   0.000000
     8  C   -0.001565   0.000356   0.000646
     9  O    0.000257  -0.000171  -0.000026
    10  O    0.001191  -0.000445  -0.000561
    11  H    0.000614  -0.000062   0.000000
    12  H   -0.000001   0.000001   0.000000
    13  O   -0.001453   0.001221  -0.001519
    14  H    0.001221  -0.000319  -0.000048
    15  H   -0.001519  -0.000048   0.002160
 Mulliken charges and spin densities:
               1          2
     1  N   -0.501982   0.239114
     2  N   -0.181128  -0.069770
     3  C   -0.342798   0.345392
     4  C   -0.103452  -0.008135
     5  C   -0.323245   0.123059
     6  H    0.197547  -0.017368
     7  H    0.180500  -0.000442
     8  C    0.773003   0.261739
     9  O   -0.747376   0.103638
    10  O   -0.736849   0.027178
    11  H    0.466734  -0.000839
    12  H    0.169522  -0.006669
    13  O   -0.840905   0.003829
    14  H    0.535939  -0.000253
    15  H    0.454490  -0.000474
 Sum of Mulliken charges =  -1.00000   1.00000
 Mulliken charges and spin densities with hydrogens summed into heavy atoms:
               1          2
     1  N   -0.501982   0.239114
     2  N   -0.181128  -0.069770
     3  C   -0.145251   0.328024
     4  C    0.077048  -0.008577
     5  C   -0.153724   0.116390
     8  C    0.773003   0.261739
     9  O   -0.747376   0.103638
    10  O   -0.200910   0.026926
    13  O    0.080319   0.002516
 Electronic spatial extent (au):  <R**2>=           1263.6721
 Charge=             -1.0000 electrons
 Dipole moment (field-independent basis, Debye):
    X=              0.9153    Y=             -8.1814    Z=              2.4379  Tot=              8.5859
 Quadrupole moment (field-independent basis, Debye-Ang):
   XX=            -59.5251   YY=            -71.4408   ZZ=            -58.4149
   XY=             -9.6459   XZ=              6.3321   YZ=             -3.8581
 Traceless Quadrupole moment (field-independent basis, Debye-Ang):
   XX=              3.6018   YY=             -8.3139   ZZ=              4.7120
   XY=             -9.6459   XZ=              6.3321   YZ=             -3.8581
 Octapole moment (field-independent basis, Debye-Ang**2):
  XXX=             28.2115  YYY=            -69.8210  ZZZ=              2.4760  XYY=              5.5170
  XXY=            -16.5467  XXZ=             21.4276  XZZ=             20.3322  YZZ=             -0.9508
  YYZ=              7.6219  XYZ=            -12.1599
 Hexadecapole moment (field-independent basis, Debye-Ang**3):
 XXXX=           -884.3574 YYYY=           -758.3189 ZZZZ=            -74.8415 XXXY=            -63.6500
 XXXZ=             57.0991 YYYX=            -57.7702 YYYZ=            -14.9190 ZZZX=             10.1714
 ZZZY=             -7.0264 XXYY=           -256.2302 XXZZ=           -176.7230 YYZZ=           -129.1984
 XXYZ=            -33.9161 YYXZ=             23.5245 ZZXY=            -17.9848
 N-N= 4.531792143103D+02 E-N=-2.069055277576D+03  KE= 4.874086290915D+02
                          Isotropic Fermi Contact Couplings
        Atom                 a.u.       MegaHertz       Gauss      10(-4) cm-1
     1  N(14)              0.05576      18.01596       6.42854       6.00948
     2  N(14)             -0.03137     -10.13529      -3.61652      -3.38077
     3  C(13)              0.04589      51.59358      18.40987      17.20976
     4  C(13)             -0.01118     -12.56381      -4.48308      -4.19083
     5  C(13)              0.01143      12.85114       4.58561       4.28668
     6  H(1)              -0.00532     -23.76137      -8.47865      -7.92594
     7  H(1)              -0.00025      -1.12588      -0.40174      -0.37555
     8  C(13)              0.04589      51.59368      18.40991      17.20980
     9  O(17)              0.02418     -14.65619      -5.22969      -4.88878
    10  O(17)              0.00719      -4.35865      -1.55527      -1.45389
    11  H(1)              -0.00000      -0.00988      -0.00353      -0.00330
    12  H(1)              -0.00207      -9.25094      -3.30097      -3.08578
    13  O(17)             -0.00116       0.70434       0.25132       0.23494
    14  H(1)              -0.00064      -2.83847      -1.01284      -0.94681
    15  H(1)               0.00003       0.15071       0.05378       0.05027
 --------------------------------------------------------
       Center         ----  Spin Dipole Couplings  ----
                      3XX-RR        3YY-RR        3ZZ-RR
 --------------------------------------------------------
     1   Atom       -0.258132     -0.247117      0.505249
     2   Atom       -0.011267     -0.002546      0.013813
     3   Atom       -0.154002     -0.150476      0.304478
     4   Atom        0.002633      0.001399     -0.004032
     5   Atom       -0.050310     -0.052493      0.102803
     6   Atom       -0.016785      0.016663      0.000122
     7   Atom        0.005564     -0.002040     -0.003524
     8   Atom       -0.169889     -0.165483      0.335372
     9   Atom       -0.203985     -0.222686      0.426671
    10   Atom       -0.109371     -0.094054      0.203425
    11   Atom        0.003323      0.000748     -0.004071
    12   Atom       -0.010434      0.012917     -0.002483
    13   Atom        0.000741     -0.003714      0.002974
    14   Atom        0.000962      0.005581     -0.006543
    15   Atom        0.001886     -0.000281     -0.001605
 --------------------------------------------------------
                        XY            XZ            YZ
 --------------------------------------------------------
     1   Atom       -0.006061      0.050392     -0.066560
     2   Atom        0.006841      0.001024     -0.002301
     3   Atom       -0.005227      0.034331     -0.033570
     4   Atom        0.001030     -0.000599      0.001115
     5   Atom        0.002379      0.009417     -0.012120
     6   Atom       -0.014975      0.000074      0.002283
     7   Atom        0.000082     -0.000683      0.000118
     8   Atom        0.005867      0.021202     -0.010947
     9   Atom        0.006073      0.018071     -0.008881
    10   Atom        0.002175      0.007567      0.003860
    11   Atom       -0.004990      0.000166     -0.000269
    12   Atom        0.001835      0.000575      0.001108
    13   Atom       -0.003265     -0.004394      0.001177
    14   Atom       -0.005082      0.000227      0.000418
    15   Atom       -0.002043      0.001267     -0.000727
 --------------------------------------------------------


 ---------------------------------------------------------------------------------
              Anisotropic Spin Dipole Couplings in Principal Axis System
 ---------------------------------------------------------------------------------

       Atom             a.u.   MegaHertz   Gauss  10(-4) cm-1        Axes

              Baa    -0.2618   -10.096    -3.602    -3.368  0.9812  0.1868 -0.0483
     1 N(14)  Bbb    -0.2527    -9.745    -3.477    -3.250 -0.1814  0.9785  0.0980
              Bcc     0.5144    19.840     7.079     6.618  0.0655 -0.0874  0.9940
 
              Baa    -0.0152    -0.585    -0.209    -0.195  0.8715 -0.4854 -0.0694
     2 N(14)  Bbb     0.0010     0.040     0.014     0.013  0.4903  0.8638  0.1162
              Bcc     0.0141     0.545     0.194     0.182  0.0035 -0.1352  0.9908
 
              Baa    -0.1580   -21.204    -7.566    -7.073  0.8810  0.4721 -0.0311
     3 C(13)  Bbb    -0.1515   -20.331    -7.255    -6.782 -0.4672  0.8785  0.0999
              Bcc     0.3095    41.536    14.821    13.855  0.0745 -0.0734  0.9945
 
              Baa    -0.0043    -0.583    -0.208    -0.194  0.1143 -0.2091  0.9712
     4 C(13)  Bbb     0.0011     0.151     0.054     0.050 -0.4816  0.8434  0.2382
              Bcc     0.0032     0.432     0.154     0.144  0.8689  0.4950  0.0043
 
              Baa    -0.0555    -7.447    -2.657    -2.484 -0.5540  0.8269  0.0963
     5 C(13)  Bbb    -0.0488    -6.548    -2.336    -2.184  0.8304  0.5571 -0.0070
              Bcc     0.1043    13.995     4.994     4.668  0.0595 -0.0760  0.9953
 
              Baa    -0.0225   -12.029    -4.292    -4.012  0.9327  0.3585 -0.0392
     6 H(1)   Bbb    -0.0000    -0.022    -0.008    -0.007  0.0700 -0.0733  0.9949
              Bcc     0.0226    12.050     4.300     4.020 -0.3538  0.9306  0.0934
 
              Baa    -0.0036    -1.913    -0.683    -0.638  0.0750 -0.0800  0.9940
     7 H(1)   Bbb    -0.0020    -1.083    -0.387    -0.361 -0.0035  0.9967  0.0805
              Bcc     0.0056     2.996     1.069     0.999  0.9972  0.0095 -0.0744
 
              Baa    -0.1751   -23.490    -8.382    -7.835  0.8271 -0.5602 -0.0464
     8 C(13)  Bbb    -0.1614   -21.663    -7.730    -7.226  0.5605  0.8281 -0.0057
              Bcc     0.3365    45.153    16.112    15.062  0.0416 -0.0213  0.9989
 
              Baa    -0.2248    16.265     5.804     5.425 -0.2973  0.9545  0.0213
     9 O(17)  Bbb    -0.2025    14.655     5.229     4.888  0.9544  0.2978 -0.0232
              Bcc     0.4273   -30.920   -11.033   -10.314  0.0285 -0.0134  0.9995
 
              Baa    -0.1098     7.947     2.836     2.651  0.9911 -0.1312 -0.0223
    10 O(17)  Bbb    -0.0938     6.789     2.423     2.265  0.1308  0.9913 -0.0162
              Bcc     0.2037   -14.737    -5.258    -4.916  0.0243  0.0131  0.9996
 
              Baa    -0.0041    -2.183    -0.779    -0.728  0.0486  0.1053  0.9933
    11 H(1)   Bbb    -0.0031    -1.657    -0.591    -0.553  0.6111  0.7835 -0.1130
              Bcc     0.0072     3.840     1.370     1.281  0.7901 -0.6125  0.0262
 
              Baa    -0.0106    -5.659    -2.019    -1.888  0.9954 -0.0748 -0.0602
    12 H(1)   Bbb    -0.0025    -1.355    -0.483    -0.452  0.0544 -0.0778  0.9955
              Bcc     0.0131     7.014     2.503     2.340  0.0792  0.9942  0.0734
 
              Baa    -0.0056     0.406     0.145     0.135  0.5377  0.8274  0.1618
    13 O(17)  Bbb    -0.0016     0.116     0.041     0.039  0.5599 -0.4940  0.6652
              Bcc     0.0072    -0.521    -0.186    -0.174 -0.6304  0.2671  0.7289
 
              Baa    -0.0066    -3.514    -1.254    -1.172 -0.0736 -0.0649  0.9952
    14 H(1)   Bbb    -0.0023    -1.211    -0.432    -0.404  0.8379  0.5372  0.0970
              Bcc     0.0089     4.725     1.686     1.576 -0.5409  0.8409  0.0149
 
              Baa    -0.0020    -1.079    -0.385    -0.360 -0.2631  0.0924  0.9603
    15 H(1)   Bbb    -0.0015    -0.804    -0.287    -0.268  0.5001  0.8643  0.0538
              Bcc     0.0035     1.883     0.672     0.628  0.8250 -0.4944  0.2736
 

 ---------------------------------------------------------------------------------

 D1PCM: PCM CHGder 1st derivatives, ID1Alg=3 FixD1E=F DoIter=F DoCFld=F I1PDM=0.
 Calling FoFJK, ICntrl=      2127 FMM=F ISym2X=0 I1Cent= 0 IOpClX= 1 NMat=1 NMatS=1 NMatT=0.
 ***** Axes restored to original set *****
 -------------------------------------------------------------------
 Center     Atomic                   Forces (Hartrees/Bohr)
 Number     Number              X              Y              Z
 -------------------------------------------------------------------
      1        7           0.036993013   -0.006722610   -0.002582191
      2        7           0.051821218    0.041306863   -0.000825951
      3        6          -0.011043947    0.032181098    0.002368361
      4        6          -0.000882368   -0.036801159   -0.002662912
      5        6          -0.048591122   -0.008335483    0.002823577
      6        1           0.000301508   -0.001191727    0.000052107
      7        1          -0.000999855   -0.000710012   -0.000069138
      8        6          -0.053913349   -0.073791012    0.000883071
      9        8          -0.008904330    0.063257205    0.002557618
     10        8           0.039723674   -0.016045689   -0.002811757
     11        1          -0.003175242    0.002430739   -0.000115424
     12        1          -0.000993939   -0.000649110    0.000160632
     13        8           0.004922160   -0.004887180    0.000677862
     14        1          -0.005095811    0.010112363    0.000005215
     15        1          -0.000161610   -0.000154286   -0.000461072
 -------------------------------------------------------------------
 Cartesian Forces:  Max     0.073791012 RMS     0.023691244

 GradGradGradGradGradGradGradGradGradGradGradGradGradGradGradGradGradGrad
 Berny optimization.
 FormGI is forming the generalized inverse of G from B-inverse, IUseBI=4.
 Internal  Forces:  Max     0.063721728 RMS     0.013330615
 Search for a local minimum.
 Step number   1 out of a maximum of   72
 All quantities printed in internal units (Hartrees-Bohrs-Radians)
 Mixed Optimization -- RFO/linear search
 Second derivative matrix not updated -- first step.
 ITU=  0
     Eigenvalues ---    0.00230   0.00230   0.00230   0.01514   0.01831
     Eigenvalues ---    0.02012   0.02024   0.02075   0.02195   0.02305
     Eigenvalues ---    0.02360   0.02962   0.04724   0.11311   0.15967
     Eigenvalues ---    0.16000   0.16000   0.16000   0.16000   0.16000
     Eigenvalues ---    0.22205   0.24044   0.24997   0.25000   0.25000
     Eigenvalues ---    0.35791   0.36055   0.36085   0.39550   0.42504
     Eigenvalues ---    0.43459   0.47214   0.48654   0.52578   0.53204
     Eigenvalues ---    0.53751   0.59621   0.66125   0.96715
 RFO step:  Lambda=-1.86537651D-02 EMin= 2.30000000D-03
 Linear search not attempted -- first point.
 Maximum step size (   0.300) exceeded in Quadratic search.
    -- Step size scaled by   0.991
 Iteration  1 RMS(Cart)=  0.15454274 RMS(Int)=  0.01270958
 Iteration  2 RMS(Cart)=  0.05072480 RMS(Int)=  0.00110879
 Iteration  3 RMS(Cart)=  0.00144315 RMS(Int)=  0.00031253
 Iteration  4 RMS(Cart)=  0.00000155 RMS(Int)=  0.00031253
 Iteration  5 RMS(Cart)=  0.00000000 RMS(Int)=  0.00031253
 Variable       Old X    -DE/DX   Delta X   Delta X   Delta X     New X
                                 (Linear)    (Quad)   (Total)
    R1        2.56368   0.02291   0.00000   0.04359   0.04369   2.60737
    R2        2.49383   0.04152   0.00000   0.06465   0.06456   2.55839
    R3        2.58905   0.02382   0.00000   0.04621   0.04636   2.63541
    R4        2.67107  -0.03247   0.00000  -0.07102  -0.07102   2.60005
    R5        2.58471   0.03269   0.00000   0.05896   0.05895   2.64366
    R6        2.03996  -0.00123   0.00000  -0.00321  -0.00321   2.03675
    R7        2.68388  -0.01366   0.00000  -0.03361  -0.03376   2.65012
    R8        2.03948   0.00109   0.00000   0.00283   0.00283   2.04232
    R9        2.04410   0.00075   0.00000   0.00196   0.00196   2.04607
   R10        2.29984   0.06372   0.00000   0.06409   0.06409   2.36393
   R11        2.46399   0.03699   0.00000   0.05395   0.05395   2.51794
   R12        1.94986  -0.00805   0.00000  -0.01799  -0.01799   1.93186
   R13        1.83463   0.00155   0.00000   0.00279   0.00279   1.83742
   R14        2.83617   0.00295   0.00000   0.02223   0.02223   2.85841
   R15        1.82959  -0.00044   0.00000  -0.00078  -0.00078   1.82881
    A1        1.82873   0.00016   0.00000   0.00781   0.00783   1.83656
    A2        1.95613  -0.00769   0.00000  -0.02196  -0.02174   1.93439
    A3        2.14599   0.00423   0.00000   0.01242   0.01231   2.15830
    A4        2.18094   0.00346   0.00000   0.00959   0.00948   2.19042
    A5        1.85964   0.00023   0.00000  -0.00107  -0.00095   1.85870
    A6        2.11106  -0.00000   0.00000   0.00113   0.00107   2.11213
    A7        2.31248  -0.00022   0.00000  -0.00007  -0.00013   2.31235
    A8        1.82805   0.00607   0.00000   0.01513   0.01498   1.84303
    A9        2.22412  -0.00243   0.00000  -0.00418  -0.00410   2.22001
   A10        2.23102  -0.00365   0.00000  -0.01095  -0.01088   2.22014
   A11        1.95221   0.00123   0.00000   0.00009  -0.00012   1.95209
   A12        2.08964   0.00032   0.00000   0.00515   0.00525   2.09489
   A13        2.24133  -0.00155   0.00000  -0.00524  -0.00513   2.23620
   A14        2.08390   0.00714   0.00000   0.02637   0.02636   2.11026
   A15        2.04805  -0.00232   0.00000  -0.00855  -0.00855   2.03951
   A16        2.15122  -0.00483   0.00000  -0.01780  -0.01780   2.13341
   A17        2.09901  -0.00930   0.00000  -0.05161  -0.05161   2.04740
   A18        1.72193  -0.00595   0.00000  -0.03508  -0.03480   1.68714
   A19        1.85710   0.00178   0.00000   0.00530   0.00589   1.86299
   A20        1.96961   0.00103   0.00000   0.00424   0.00436   1.97397
   A21        3.32680  -0.00506   0.00000  -0.24081  -0.24059   3.08622
   A22        3.11496   0.00004   0.00000   0.00383   0.00367   3.11862
    D1       -0.00337  -0.00004   0.00000  -0.00120  -0.00119  -0.00455
    D2       -3.12885  -0.00020   0.00000  -0.00473  -0.00469  -3.13354
    D3        0.00149   0.00011   0.00000   0.00264   0.00265   0.00414
    D4        3.14144   0.00010   0.00000   0.00254   0.00256  -3.13919
    D5        0.00396  -0.00004   0.00000  -0.00071  -0.00067   0.00329
    D6       -3.13968  -0.00010   0.00000  -0.00199  -0.00196   3.14155
    D7        3.12905   0.00013   0.00000   0.00293   0.00293   3.13199
    D8       -0.01458   0.00007   0.00000   0.00165   0.00165  -0.01293
    D9        3.07583   0.00075   0.00000   0.02263   0.02266   3.09849
   D10       -0.05991   0.00066   0.00000   0.01990   0.01991  -0.04000
   D11       -0.04754   0.00067   0.00000   0.01893   0.01892  -0.02862
   D12        3.09991   0.00057   0.00000   0.01620   0.01617   3.11607
   D13       -0.00278   0.00008   0.00000   0.00209   0.00210  -0.00067
   D14        3.13863  -0.00001   0.00000  -0.00006  -0.00005   3.13858
   D15        3.14119   0.00014   0.00000   0.00358   0.00360  -3.13840
   D16       -0.00058   0.00006   0.00000   0.00143   0.00144   0.00086
   D17        0.00084  -0.00013   0.00000  -0.00305  -0.00304  -0.00221
   D18       -3.13894  -0.00012   0.00000  -0.00296  -0.00295   3.14130
   D19       -3.14057  -0.00004   0.00000  -0.00089  -0.00089  -3.14146
   D20        0.00284  -0.00003   0.00000  -0.00080  -0.00079   0.00205
   D21       -0.10054   0.00007   0.00000   0.00130   0.00127  -0.09927
   D22        3.04715  -0.00008   0.00000  -0.00170  -0.00168   3.04547
   D23        0.01731  -0.00057   0.00000  -0.01538  -0.01686   0.00045
   D24       -1.96620   0.00080   0.00000   0.02618   0.02764  -1.93855
   D25        1.95429  -0.00070   0.00000  -0.01067  -0.00971   1.94458
         Item               Value     Threshold  Converged?
 Maximum Force            0.063722     0.000450     NO 
 RMS     Force            0.013331     0.000300     NO 
 Maximum Displacement     0.786276     0.001800     NO 
 RMS     Displacement     0.201150     0.001200     NO 
 Predicted change in Energy=-1.018886D-02
 GradGradGradGradGradGradGradGradGradGradGradGradGradGradGradGradGradGrad

                          Input orientation:                          
 ---------------------------------------------------------------------
 Center     Atomic      Atomic             Coordinates (Angstroms)
 Number     Number       Type             X           Y           Z
 ---------------------------------------------------------------------
      1          7           0       -0.109528   -1.020900   -0.102224
      2          7           0       -0.365231    0.331614   -0.007027
      3          6           0       -1.735093    0.571223    0.097704
      4          6           0       -2.360363   -0.679952    0.071236
      5          6           0       -1.324001   -1.616914   -0.050166
      6          1           0       -2.118524    1.575047    0.181243
      7          1           0       -3.420180   -0.882192    0.133707
      8          6           0        0.615195    1.296638   -0.030740
      9          8           0        0.321861    2.511896    0.013346
     10          8           0        1.875947    0.872091   -0.105893
     11          1           0        1.243291   -1.848303    0.076309
     12          1           0       -1.400958   -2.695569   -0.103933
     13          8           0        2.189548   -1.640245   -0.005686
     14          1           0        2.035354   -0.136199   -0.050816
     15          1           0        2.615235   -1.954142    0.804760
 ---------------------------------------------------------------------
                    Distance matrix (angstroms):
                    1          2          3          4          5
     1  N    0.000000
     2  N    1.379761   0.000000
     3  C    2.284139   1.394598   0.000000
     4  C    2.283110   2.238290   1.398964   0.000000
     5  C    1.353841   2.172064   2.231324   1.402384   0.000000
     6  H    3.294747   2.157685   1.077803   2.270596   3.297488
     7  H    3.321945   3.290265   2.225585   1.080748   2.228809
     8  C    2.429263   1.375888   2.463043   3.573689   3.499949
     9  O    3.560913   2.286075   2.829203   4.169601   4.445218
    10  O    2.743272   2.307546   3.629268   4.515144   4.054370
    11  H    1.595803   2.710410   3.837360   3.788323   2.580799
    12  H    2.114783   3.200931   3.290020   2.239164   1.082733
    13  O    2.382993   3.227247   4.506006   4.650781   3.513907
    14  H    2.320745   2.446134   3.839111   4.430901   3.671210
    15  H    3.019585   3.842767   5.079641   5.188274   4.045022
                    6          7          8          9         10
     6  H    0.000000
     7  H    2.781113   0.000000
     8  C    2.756024   4.588964   0.000000
     9  O    2.619419   5.053434   1.250936   0.000000
    10  O    4.066004   5.584252   1.332435   2.262379   0.000000
    11  H    4.799180   4.762838   3.208834   4.456942   2.798927
    12  H    4.339860   2.724347   4.473024   5.486306   4.844203
    13  O    5.378896   5.662430   3.332342   4.552900   2.533816
    14  H    4.498546   5.509392   2.017493   3.154771   1.022298
    15  H    5.937375   6.166492   3.907147   5.082460   3.059973
                   11         12         13         14         15
    11  H    0.000000
    12  H    2.782516   0.000000
    13  O    0.972323   3.743673   0.000000
    14  H    1.890720   4.285024   1.512603   0.000000
    15  H    1.556944   4.183926   0.967762   2.091217   0.000000
 Stoichiometry    C4H6N2O3(1-,2)
 Framework group  C1[X(C4H6N2O3)]
 Deg. of freedom    39
 Full point group                 C1      NOp   1
 Largest Abelian subgroup         C1      NOp   1
 Largest concise Abelian subgroup C1      NOp   1
                         Standard orientation:                         
 ---------------------------------------------------------------------
 Center     Atomic      Atomic             Coordinates (Angstroms)
 Number     Number       Type             X           Y           Z
 ---------------------------------------------------------------------
      1          7           0       -0.385624   -0.964151   -0.108390
      2          7           0       -0.301560    0.409562   -0.010474
      3          6           0       -1.571416    0.979013    0.079501
      4          6           0       -2.485144   -0.079613    0.040602
      5          6           0       -1.710004   -1.242789   -0.072798
      6          1           0       -1.696854    2.046244    0.162830
      7          1           0       -3.562808   -0.014704    0.090034
      8          6           0        0.886514    1.103449   -0.018867
      9          8           0        0.900935    2.353462    0.026934
     10          8           0        2.004729    0.381589   -0.081296
     11          1           0        0.719530   -2.099443    0.082219
     12          1           0       -2.049531   -2.269205   -0.131966
     13          8           0        1.688809   -2.130724    0.011984
     14          1           0        1.910271   -0.634972   -0.028614
     15          1           0        2.014197   -2.540781    0.825949
 ---------------------------------------------------------------------
 Rotational constants (GHZ):           2.0657773           1.6594474           0.9241701
 Standard basis: 6-31+G(d,p) (6D, 7F)
 There are   201 symmetry adapted cartesian basis functions of A   symmetry.
 There are   201 symmetry adapted basis functions of A   symmetry.
   201 basis functions,   330 primitive gaussians,   201 cartesian basis functions
    35 alpha electrons       34 beta electrons
       nuclear repulsion energy       456.9667451770 Hartrees.
 NAtoms=   15 NActive=   15 NUniq=   15 SFac= 1.00D+00 NAtFMM=   60 NAOKFM=F Big=F
 Integral buffers will be    131072 words long.
 Raffenetti 2 integral format.
 Two-electron integral symmetry is turned on.
 ------------------------------------------------------------------------------
 Polarizable Continuum Model (PCM)
 =================================
 Model                : PCM.
 Atomic radii         : SMD-Coulomb.
 Polarization charges : Total charges.
 Charge compensation  : None.
 Solution method      : On-the-fly selection.
 Cavity type          : VdW (van der Waals Surface) (Alpha=1.000).
 Cavity algorithm     : GePol (No added spheres)
                        Default sphere list used, NSphG=   15.
                        Lebedev-Laikov grids with approx.  5.0 points / Ang**2.
                        Smoothing algorithm: York/Karplus (Gamma=1.0000).
                        Polarization charges: spherical gaussians, with
                                              point-specific exponents (IZeta= 3).
                        Self-potential: point-specific (ISelfS= 7).
                        Self-field    : sphere-specific E.n sum rule (ISelfD= 2).
 1st derivatives      : Analytical E(r).r(x)/FMM algorithm (CHGder, D1EAlg=3).
                        Cavity 1st derivative terms included.
 Solvent              : Water, Eps=  78.355300 Eps(inf)=   1.777849
 ------------------------------------------------------------------------------
 Spheres list:
 ISph  on   Nord     Re0    Alpha      Xe            Ye            Ze
    1   N      1    1.8900  1.000     -0.385624     -0.964151     -0.108390
    2   N      2    1.8900  1.000     -0.301560      0.409562     -0.010474
    3   C      3    1.8500  1.000     -1.571416      0.979013      0.079501
    4   C      4    1.8500  1.000     -2.485144     -0.079613      0.040602
    5   C      5    1.8500  1.000     -1.710004     -1.242789     -0.072798
    6   H      6    1.2000  1.000     -1.696854      2.046244      0.162830
    7   H      7    1.2000  1.000     -3.562808     -0.014704      0.090034
    8   C      8    1.8500  1.000      0.886514      1.103449     -0.018867
    9   O      9    1.5200  1.000      0.900935      2.353462      0.026934
   10   O     10    1.5200  1.000      2.004729      0.381589     -0.081296
   11   H     11    1.2000  1.000      0.719530     -2.099443      0.082219
   12   H     12    1.2000  1.000     -2.049531     -2.269205     -0.131966
   13   O     13    1.5200  1.000      1.688809     -2.130724      0.011984
   14   H     14    1.2000  1.000      1.910271     -0.634972     -0.028614
   15   H     15    1.2000  1.000      2.014197     -2.540781      0.825949
 ------------------------------------------------------------------------------
 ------------------------------------------------------------------------------
 Atomic radii for non-electrostatic terms: SMD-CDS.
 ------------------------------------------------------------------------------
 Nuclear repulsion after PCM non-electrostatic terms =      456.9756455563 Hartrees.
 One-electron integrals computed using PRISM.
 NBasis=   201 RedAO= T EigKep=  3.47D-05  NBF=   201
 NBsUse=   201 1.00D-06 EigRej= -1.00D+00 NBFU=   201
 Initial guess from the checkpoint file:  "/scratch/gongke2021/bizuo-PC/Gau-14652.chk"
 B after Tr=    -0.000000   -0.000000    0.000000
         Rot=    0.992306   -0.001043    0.003523    0.123754 Ang= -14.22 deg.
 Initial guess <Sx>= 0.0000 <Sy>= 0.0000 <Sz>= 0.5000 <S**2>= 0.7603 S= 0.5051
 ExpMin= 4.38D-02 ExpMax= 5.48D+03 ExpMxC= 8.25D+02 IAcc=2 IRadAn=         4 AccDes= 0.00D+00
 Harris functional with IExCor= 1009 and IRadAn=       4 diagonalized for initial guess.
 HarFok:  IExCor= 1009 AccDes= 0.00D+00 IRadAn=         4 IDoV= 1 UseB2=F ITyADJ=14
 ICtDFT=  3500011 ScaDFX=  1.000000  1.000000  1.000000  1.000000
 FoFCou: FMM=F IPFlag=           0 FMFlag=      100000 FMFlg1=           0
         NFxFlg=           0 DoJE=T BraDBF=F KetDBF=T FulRan=T
         wScrn=  0.000000 ICntrl=       500 IOpCl=  0 I1Cent=   200000004 NGrid=           0
         NMat0=    1 NMatS0=      1 NMatT0=    0 NMatD0=    1 NMtDS0=    0 NMtDT0=    0
 Petite list used in FoFCou.
 Requested convergence on RMS density matrix=1.00D-08 within 128 cycles.
 Requested convergence on MAX density matrix=1.00D-06.
 Requested convergence on             energy=1.00D-06.
 No special actions if energy rises.
 Inv3:  Mode=1 IEnd=     4099683.
 Iteration    1 A*A^-1 deviation from unit magnitude is 2.66D-15 for    410.
 Iteration    1 A*A^-1 deviation from orthogonality  is 2.33D-15 for    977    609.
 Iteration    1 A^-1*A deviation from unit magnitude is 2.89D-15 for    570.
 Iteration    1 A^-1*A deviation from orthogonality  is 1.85D-15 for    363     16.
 Error on total polarization charges =  0.06657
 SCF Done:  E(UM062X) =  -491.125232623     A.U. after   16 cycles
            NFock= 16  Conv=0.93D-08     -V/T= 2.0080
 <Sx>= 0.0000 <Sy>= 0.0000 <Sz>= 0.5000 <S**2>= 0.7619 S= 0.5059
 <L.S>=  0.00000000000    
 SMD-CDS (non-electrostatic) energy       (kcal/mol) =       5.59
 (included in total energy above)
 Annihilation of the first spin contaminant:
 S**2 before annihilation     0.7619,   after     0.7501
 D1PCM: PCM CHGder 1st derivatives, ID1Alg=3 FixD1E=F DoIter=F DoCFld=F I1PDM=0.
 Calling FoFJK, ICntrl=      2127 FMM=F ISym2X=0 I1Cent= 0 IOpClX= 1 NMat=1 NMatS=1 NMatT=0.
 ***** Axes restored to original set *****
 -------------------------------------------------------------------
 Center     Atomic                   Forces (Hartrees/Bohr)
 Number     Number              X              Y              Z
 -------------------------------------------------------------------
      1        7          -0.020080181   -0.004216643   -0.002914549
      2        7           0.011182960    0.014773437    0.000742502
      3        6          -0.007136988    0.002817702    0.000239725
      4        6           0.008704034   -0.006013390   -0.000915357
      5        6          -0.017226783    0.005916042    0.001025194
      6        1           0.000291104   -0.000202782   -0.000011156
      7        1          -0.000107575    0.000737430   -0.000008827
      8        6          -0.022253674   -0.024322969    0.001196192
      9        8           0.001199405    0.009508975    0.000463267
     10        8           0.015139277    0.002757644   -0.001624525
     11        1          -0.017353582    0.010390596   -0.001570464
     12        1           0.001467683    0.000428709    0.000022475
     13        8           0.049184628   -0.013332672    0.004978531
     14        1          -0.006189210    0.000527747    0.000162318
     15        1           0.003178902    0.000230173   -0.001785326
 -------------------------------------------------------------------
 Cartesian Forces:  Max     0.049184628 RMS     0.011339082

 GradGradGradGradGradGradGradGradGradGradGradGradGradGradGradGradGradGrad
 Berny optimization.
 Using GEDIIS/GDIIS optimizer.
 FormGI is forming the generalized inverse of G from B-inverse, IUseBI=4.
 Internal  Forces:  Max     0.128327310 RMS     0.027542416
 Search for a local minimum.
 Step number   2 out of a maximum of   72
 All quantities printed in internal units (Hartrees-Bohrs-Radians)
 Mixed Optimization -- RFO/linear search
 Update second derivatives using D2CorX and points    1    2
 DE= -2.55D-03 DEPred=-1.02D-02 R= 2.50D-01
 Trust test= 2.50D-01 RLast= 3.04D-01 DXMaxT set to 3.00D-01
 ITU=  0  0
 Use linear search instead of GDIIS.
     Eigenvalues ---    0.00230   0.00230   0.00562   0.01560   0.01832
     Eigenvalues ---    0.02007   0.02013   0.02077   0.02200   0.02309
     Eigenvalues ---    0.02360   0.02923   0.04753   0.06700   0.11586
     Eigenvalues ---    0.15998   0.16000   0.16000   0.16000   0.16911
     Eigenvalues ---    0.20047   0.22248   0.24180   0.24998   0.25693
     Eigenvalues ---    0.35792   0.36058   0.36089   0.40213   0.42545
     Eigenvalues ---    0.45741   0.48311   0.49490   0.52995   0.53751
     Eigenvalues ---    0.54881   0.63353   0.84929   1.59906
 RFO step:  Lambda=-7.70256887D-02 EMin= 2.29703946D-03
 Quartic linear search produced a step of -0.39091.
 Maximum step size (   0.300) exceeded in Quadratic search.
    -- Step size scaled by   0.387
 Iteration  1 RMS(Cart)=  0.20806216 RMS(Int)=  0.00967186
 Iteration  2 RMS(Cart)=  0.02677645 RMS(Int)=  0.00018052
 Iteration  3 RMS(Cart)=  0.00041515 RMS(Int)=  0.00007998
 Iteration  4 RMS(Cart)=  0.00000010 RMS(Int)=  0.00007998
 Variable       Old X    -DE/DX   Delta X   Delta X   Delta X     New X
                                 (Linear)    (Quad)   (Total)
    R1        2.60737   0.00280  -0.01708   0.07040   0.05344   2.66081
    R2        2.55839   0.00638  -0.02524   0.10608   0.08076   2.63915
    R3        2.63541   0.00957  -0.01812   0.07644   0.05847   2.69388
    R4        2.60005   0.00626   0.02776  -0.10862  -0.08086   2.51919
    R5        2.64366  -0.00314  -0.02304   0.09281   0.06974   2.71340
    R6        2.03675  -0.00029   0.00125  -0.00501  -0.00376   2.03300
    R7        2.65012  -0.01408   0.01320  -0.05742  -0.04439   2.60573
    R8        2.04232  -0.00003  -0.00111   0.00431   0.00320   2.04552
    R9        2.04607  -0.00054  -0.00077   0.00277   0.00200   2.04807
   R10        2.36393   0.00897  -0.02505   0.10854   0.08349   2.44741
   R11        2.51794   0.04136  -0.02109   0.09782   0.07674   2.59467
   R12        1.93186   0.00680   0.00703  -0.02556  -0.01853   1.91334
   R13        1.83742   0.01454  -0.00109   0.00876   0.00767   1.84509
   R14        2.85841   0.00634  -0.00869   0.03267   0.02398   2.88239
   R15        1.82881  -0.00016   0.00031  -0.00129  -0.00099   1.82782
    A1        1.83656   0.00448  -0.00306   0.01340   0.01040   1.84696
    A2        1.93439  -0.01303   0.00850  -0.03885  -0.03010   1.90430
    A3        2.15830   0.05101  -0.00481   0.04600   0.04106   2.19936
    A4        2.19042  -0.03800  -0.00370  -0.00717  -0.01100   2.17941
    A5        1.85870   0.00703   0.00037   0.00297   0.00345   1.86215
    A6        2.11213  -0.00374  -0.00042  -0.00086  -0.00134   2.11079
    A7        2.31235  -0.00330   0.00005  -0.00211  -0.00212   2.31023
    A8        1.84303   0.00033  -0.00585   0.02170   0.01565   1.85867
    A9        2.22001  -0.00094   0.00160  -0.00699  -0.00529   2.21472
   A10        2.22014   0.00061   0.00425  -0.01470  -0.01035   2.20979
   A11        1.95209   0.00119   0.00005   0.00077   0.00059   1.95268
   A12        2.09489  -0.00204  -0.00205   0.00533   0.00339   2.09828
   A13        2.23620   0.00085   0.00201  -0.00610  -0.00398   2.23222
   A14        2.11026  -0.04970  -0.01031   0.01055   0.00024   2.11050
   A15        2.03951   0.10741   0.00334   0.04692   0.05026   2.08976
   A16        2.13341  -0.05772   0.00696  -0.05747  -0.05051   2.08290
   A17        2.04740   0.12833   0.02018   0.02988   0.05005   2.09745
   A18        1.68714  -0.02280   0.01360  -0.06258  -0.04902   1.63812
   A19        1.86299   0.00629  -0.00230   0.01353   0.01113   1.87412
   A20        1.97397   0.00194  -0.00171   0.00751   0.00578   1.97975
   A21        3.08622   0.07486   0.09405   0.07509   0.16912   3.25534
   A22        3.11862   0.00275  -0.00143   0.00751   0.00610   3.12472
    D1       -0.00455  -0.00073   0.00046  -0.00218  -0.00170  -0.00625
    D2       -3.13354   0.00185   0.00183  -0.00009   0.00180  -3.13174
    D3        0.00414   0.00051  -0.00104   0.00270   0.00167   0.00581
    D4       -3.13919   0.00031  -0.00100   0.00228   0.00129  -3.13791
    D5        0.00329   0.00073   0.00026   0.00101   0.00124   0.00453
    D6        3.14155   0.00067   0.00077   0.00005   0.00078  -3.14085
    D7        3.13199  -0.00112  -0.00115  -0.00066  -0.00174   3.13025
    D8       -0.01293  -0.00118  -0.00064  -0.00162  -0.00220  -0.01514
    D9        3.09849  -0.00498  -0.00886   0.00401  -0.00490   3.09359
   D10       -0.04000  -0.00244  -0.00778   0.00693  -0.00086  -0.04086
   D11       -0.02862  -0.00234  -0.00740   0.00655  -0.00084  -0.02946
   D12        3.11607   0.00020  -0.00632   0.00947   0.00320   3.11928
   D13       -0.00067  -0.00042  -0.00082   0.00055  -0.00027  -0.00095
   D14        3.13858  -0.00017   0.00002  -0.00035  -0.00033   3.13825
   D15       -3.13840  -0.00035  -0.00141   0.00165   0.00026  -3.13814
   D16        0.00086  -0.00010  -0.00056   0.00076   0.00020   0.00106
   D17       -0.00221  -0.00005   0.00119  -0.00202  -0.00084  -0.00305
   D18        3.14130   0.00017   0.00115  -0.00158  -0.00043   3.14087
   D19       -3.14146  -0.00029   0.00035  -0.00114  -0.00080   3.14093
   D20        0.00205  -0.00007   0.00031  -0.00070  -0.00038   0.00167
   D21       -0.09927  -0.01046  -0.00050  -0.01709  -0.01754  -0.11681
   D22        3.04547  -0.00791   0.00066  -0.01426  -0.01365   3.03181
   D23        0.00045   0.00285   0.00659  -0.00156   0.00515   0.00559
   D24       -1.93855  -0.00433  -0.01081   0.00247  -0.00845  -1.94700
   D25        1.94458  -0.00384   0.00380  -0.01411  -0.01034   1.93424
         Item               Value     Threshold  Converged?
 Maximum Force            0.128327     0.000450     NO 
 RMS     Force            0.027542     0.000300     NO 
 Maximum Displacement     0.859951     0.001800     NO 
 RMS     Displacement     0.229609     0.001200     NO 
 Predicted change in Energy=-3.103888D-02
 GradGradGradGradGradGradGradGradGradGradGradGradGradGradGradGradGradGrad

                          Input orientation:                          
 ---------------------------------------------------------------------
 Center     Atomic      Atomic             Coordinates (Angstroms)
 Number     Number       Type             X           Y           Z
 ---------------------------------------------------------------------
      1          7           0       -0.275817   -1.078222   -0.119517
      2          7           0       -0.428671    0.317158   -0.009378
      3          6           0       -1.816114    0.627942    0.093476
      4          6           0       -2.522916   -0.621160    0.049963
      5          6           0       -1.567440   -1.607494   -0.074755
      6          1           0       -2.149366    1.646645    0.186026
      7          1           0       -3.594442   -0.763793    0.106227
      8          6           0        0.555233    1.216605   -0.018463
      9          8           0        0.298193    2.484753    0.036778
     10          8           0        1.860433    0.797410   -0.095757
     11          1           0        1.688190   -2.006234    0.109123
     12          1           0       -1.720647   -2.678508   -0.138478
     13          8           0        2.583582   -1.628442    0.014976
     14          1           0        2.082032   -0.189164   -0.043715
     15          1           0        3.070302   -1.833401    0.825314
 ---------------------------------------------------------------------
                    Distance matrix (angstroms):
                    1          2          3          4          5
     1  N    0.000000
     2  N    1.408041   0.000000
     3  C    2.308436   1.425540   0.000000
     4  C    2.299366   2.295610   1.435868   0.000000
     5  C    1.396576   2.237265   2.255507   1.378892   0.000000
     6  H    3.320910   2.183234   1.075815   2.302388   3.316031
     7  H    3.341123   3.347227   2.258216   1.082441   2.203026
     8  C    2.442762   1.333100   2.445883   3.585675   3.533334
     9  O    3.612299   2.286686   2.814473   4.195894   4.498835
    10  O    2.842908   2.340535   3.685313   4.609482   4.187401
    11  H    2.184218   3.145361   4.383980   4.433435   3.285108
    12  H    2.156110   3.264948   3.315950   2.216264   1.083791
    13  O    2.914960   3.586032   4.945175   5.205013   4.152045
    14  H    2.521036   2.561479   3.985227   4.626115   3.915517
    15  H    3.558021   4.190994   5.520042   5.775360   4.729674
                    6          7          8          9         10
     6  H    0.000000
     7  H    2.811552   0.000000
     8  C    2.746199   4.599710   0.000000
     9  O    2.591379   5.070551   1.295114   0.000000
    10  O    4.108417   5.677483   1.373042   2.303320   0.000000
    11  H    5.298705   5.426774   3.418562   4.701733   2.816393
    12  H    4.358446   2.690190   4.512864   5.546684   4.990789
    13  O    5.758146   6.238904   3.494225   4.705513   2.533765
    14  H    4.618193   5.707455   2.075558   3.215338   1.012494
    15  H    6.305897   6.788222   4.042285   5.191612   3.038639
                   11         12         13         14         15
    11  H    0.000000
    12  H    3.483308   0.000000
    13  O    0.976380   4.433123   0.000000
    14  H    1.865534   4.546008   1.525293   0.000000
    15  H    1.566216   4.959465   0.967239   2.106040   0.000000
 Stoichiometry    C4H6N2O3(1-,2)
 Framework group  C1[X(C4H6N2O3)]
 Deg. of freedom    39
 Full point group                 C1      NOp   1
 Largest Abelian subgroup         C1      NOp   1
 Largest concise Abelian subgroup C1      NOp   1
                         Standard orientation:                         
 ---------------------------------------------------------------------
 Center     Atomic      Atomic             Coordinates (Angstroms)
 Number     Number       Type             X           Y           Z
 ---------------------------------------------------------------------
      1          7           0       -0.303572   -1.068855   -0.117066
      2          7           0       -0.425564    0.329906   -0.011387
      3          6           0       -1.805728    0.671496    0.091702
      4          6           0       -2.539898   -0.561877    0.052947
      5          6           0       -1.606490   -1.569412   -0.069387
      6          1           0       -2.116382    1.697587    0.181197
      7          1           0       -3.614249   -0.680698    0.110655
      8          6           0        0.577893    1.207437   -0.024330
      9          8           0        0.348886    2.481112    0.026965
     10          8           0        1.873472    0.759357   -0.101427
     11          1           0        1.639753   -2.039130    0.112848
     12          1           0       -1.783299   -2.636996   -0.129441
     13          8           0        2.543152   -1.681454    0.016643
     14          1           0        2.073350   -0.231682   -0.046335
     15          1           0        3.026036   -1.894425    0.827210
 ---------------------------------------------------------------------
 Rotational constants (GHZ):           2.0571279           1.4208983           0.8440991
 Standard basis: 6-31+G(d,p) (6D, 7F)
[...]
 ! D19   D(7,4,5,1)            179.8417         -DE/DX =    0.0                 !
 ! D20   D(7,4,5,12)            -0.126          -DE/DX =    0.0                 !
 ! D21   D(2,8,10,14)           -6.1645         -DE/DX =    0.0                 !
 ! D22   D(9,8,10,14)          174.6412         -DE/DX =    0.0                 !
 ! D23   D(8,10,13,11)           4.9434         -DE/DX =    0.0                 !
 ! D24   D(8,10,13,15)         -95.8969         -DE/DX =    0.0                 !
 ! D25   D(11,13,14,15)        100.1387         -DE/DX =    0.0                 !
 --------------------------------------------------------------------------------
 GradGradGradGradGradGradGradGradGradGradGradGradGradGradGradGradGradGrad


 ----------------------------------------------------------------------

 Electric dipole moment (input orientation):
 (Debye = 10**-18 statcoulomb cm , SI units = C m)
                  (au)            (Debye)         (10**-30 SI)
   Tot        0.289130D+01      0.734895D+01      0.245135D+02
   x         -0.104415D+01     -0.265397D+01     -0.885269D+01
   y         -0.253161D+01     -0.643471D+01     -0.214639D+02
   z          0.927535D+00      0.235756D+01      0.786397D+01

 Dipole polarizability, Alpha (input orientation).
 (esu units = cm**3 , SI units = C**2 m**2 J**-1)
 Alpha(0;0):
               (au)            (10**-24 esu)      (10**-40 SI)
   iso        0.135759D+03      0.201175D+02      0.223837D+02
   aniso      0.973755D+02      0.144296D+02      0.160550D+02
   xx         0.155995D+03      0.231160D+02      0.257201D+02
   yx         0.238242D+02      0.353038D+01      0.392808D+01
   yy         0.173349D+03      0.256877D+02      0.285815D+02
   zx        -0.287859D+01     -0.426563D+00     -0.474615D+00
   zy         0.128554D+01      0.190498D+00      0.211957D+00
   zz         0.779339D+02      0.115486D+02      0.128496D+02

 ----------------------------------------------------------------------

 Dipole orientation:
     7          0.15857822         -0.89552794          1.68912791
     7         -0.85280494          0.45171750         -0.32589022
     6         -3.23285110          1.43333668          0.28834692
     6         -3.71082674          0.67835130          2.77270099
     6         -1.62079645         -0.71481894          3.54189795
     1         -4.29230868          2.52897927         -1.06076476
     1         -5.38270352          1.10252563          3.86640387
     6          0.32447060          0.73384327         -2.56873822
     8         -0.64151996          1.92200156         -4.38262631
     8          2.63957008         -0.34864816         -2.86593354
     1          3.22659530         -2.02004305          1.95179091
     1         -1.27117616         -1.61839696          5.34160357
     8          4.96344903         -2.59261403          1.50338208
     1          3.32501821         -1.09896626         -1.32090837
     1          6.10165680         -1.37451198          2.24653308

 Electric dipole moment (dipole orientation):
 (Debye = 10**-18 statcoulomb cm , SI units = C m)
                  (au)            (Debye)         (10**-30 SI)
   Tot        0.289130D+01      0.734895D+01      0.245135D+02
   x          0.000000D+00      0.000000D+00      0.000000D+00
   y          0.000000D+00      0.000000D+00      0.000000D+00
   z          0.289130D+01      0.734895D+01      0.245135D+02

 Dipole polarizability, Alpha (dipole orientation).
 (esu units = cm**3 , SI units = C**2 m**2 J**-1)
 Alpha(0;0):
               (au)            (10**-24 esu)      (10**-40 SI)
   iso        0.135759D+03      0.201175D+02      0.223837D+02
   aniso      0.973755D+02      0.144296D+02      0.160550D+02
   xx         0.134432D+03      0.199207D+02      0.221648D+02
   yx        -0.181502D+02     -0.268959D+01     -0.299257D+01
   yy         0.965682D+02      0.143099D+02      0.159219D+02
   zx        -0.231085D+02     -0.342432D+01     -0.381007D+01
   zy        -0.265988D+02     -0.394153D+01     -0.438555D+01
   zz         0.176278D+03      0.261217D+02      0.290643D+02

 ----------------------------------------------------------------------
 1\1\GINC-NODE7\Freq\UM062X\6-31+G(d,p)\C4H6N2O3(1-,2)\GONGKE2021\06-No
 v-2023\0\\#N Geom=AllCheck Guess=TCheck SCRF=Check GenChk UM062X/6-31+
 G(d,p) Freq\\Title Card Required\\-1,2\N,-0.1337172601,-1.0015582183,-
 0.0978852023\N,-0.4016723339,0.3593274334,-0.0089974083\C,-1.778519512
 8,0.5941804697,0.0952666653\C,-2.3856018509,-0.6639955675,0.0758512371
 \C,-1.3593124808,-1.5944841339,-0.0396730744\H,-2.1647851472,1.5967529
 453,0.1714332808\H,-3.4457115888,-0.864777647,0.1385550893\C,0.5526765
 967,1.3120285084,-0.0340413453\O,0.288088007,2.5386513742,0.0239529921
 \O,1.8507402429,0.9161087189,-0.1436343198\H,1.4217640701,-1.761601398
 2,0.0119786124\H,-1.4220290458,-2.6732680446,-0.0860074063\O,2.4083443
 806,-1.9009910065,0.002479136\H,1.977442774,-0.0531900319,-0.098012987
 6\H,2.6548451488,-2.1190894019,0.910555731\\Version=ES64L-G16RevA.03\S
 tate=2-A\HF=-491.1383704\S2=0.762875\S2-1=0.\S2A=0.750108\RMSD=1.425e-
 09\RMSF=3.989e-05\ZeroPoint=0.1061483\Thermal=0.1159256\Dipole=-1.0441
 515,-2.5316098,0.9275352\DipoleDeriv=-0.9840625,1.3949575,0.074828,-0.
 3566591,-0.7201284,0.0355164,-0.0386805,-0.0875866,-0.4293363,-0.08569
 69,0.1699674,0.0053099,0.0362155,-0.1384268,-0.0011562,0.0308583,0.013
 6457,0.0061528,-0.4154535,-0.6346864,-0.0347967,0.8969463,-0.1100286,-
 0.0398128,0.0333895,0.0639203,-0.5019708,-0.2624872,0.1932227,0.001655
 5,-0.3967334,0.235905,0.0525607,-0.0160989,0.0131013,-0.3172342,0.4010
 003,-0.7993658,-0.0853586,0.0982852,-0.4575673,-0.0085627,-0.0449229,0
 .0523348,-0.2393868,0.0764253,-0.0087512,0.0182901,0.014632,0.0389512,
 -0.0171369,0.0228307,-0.015322,0.3622402,-0.0477296,-0.0614941,0.01772
 01,-0.046414,0.1511312,-0.001572,0.0183334,-0.0034565,0.2611293,2.4690
 325,-0.1050017,-0.1193684,0.8570227,3.7554598,0.0689185,-0.1702104,0.0
 667128,0.5531677,-0.6682319,0.5277125,0.0113323,-1.4373611,-3.5214751,
 -0.0146414,-0.0498972,-0.1175048,-0.7507982,-2.3489812,-0.3061043,0.07
 08399,0.8086405,-0.7951548,-0.0402236,0.1803547,0.0595581,-0.6103717,1
 .2881944,-0.6117381,0.0652405,-0.4078072,0.6587988,0.0079725,0.1054352
 ,-0.0102373,0.3490588,0.1072833,-0.0143486,0.0099083,-0.0306757,-0.058
 0461,-0.0131071,0.0057573,-0.0125859,0.2589734,-1.446444,0.4238452,-0.
 0955376,0.2762302,-1.2122613,-0.0220166,-0.106355,0.0047556,-0.6906098
 ,0.5133621,-0.1728725,0.0124046,-0.3276862,0.7212631,-0.0283987,0.0077
 888,-0.0380286,0.4479628,0.4037891,0.0046575,0.0475321,0.0153644,0.451
 5793,0.02166,0.0214172,0.010693,0.3010228\Polar=155.9947061,23.8241776
 ,173.3493996,-2.8785873,1.2855415,77.9339035\Quadrupole=1.7776305,-8.3
 862787,6.6086482,-1.7991396,4.2854082,-3.3574845\PG=C01 [X(C4H6N2O3)]\
 NImag=0\\0.53467970,0.05551583,0.41765145,-0.02348797,0.01170657,0.066
 50637,-0.14166077,0.09148285,0.01052891,0.74350219,-0.01581230,-0.1992
 5845,-0.00683921,0.11802277,0.70026200,0.00421380,-0.01297983,-0.04297
 458,-0.04131212,0.01828637,0.09580920,-0.01193938,0.02330296,0.0019310
 1,-0.22850889,0.05536246,0.01641803,0.52071899,0.02671612,-0.02278518,
 -0.00271176,0.01669737,-0.12613300,-0.00584842,-0.04961500,0.83606498,
 0.00192983,-0.00265455,-0.00252572,0.01368380,-0.00815664,-0.03906913,
 -0.03365885,0.04162427,0.06130922,-0.08884305,-0.01276487,0.00647500,-
 0.05590553,-0.01938643,0.00320840,-0.14827966,-0.10077912,0.00207782,0
 .86395381,0.00821278,-0.00267050,-0.00140104,-0.05037572,-0.00369374,0
 .00288785,-0.08776942,-0.28715493,-0.00583026,0.03520205,0.57614425,0.
 00800066,-0.00041840,0.01882521,0.00180105,0.00088051,0.00579832,0.002
 70814,-0.00505279,-0.04184192,-0.05036881,0.02047436,0.10845745,-0.289
 12924,-0.12446299,0.01043883,-0.01579015,-0.02515967,0.00070628,0.0190
 5109,0.03092530,0.00182773,-0.23998798,0.13529603,0.01924920,0.6115174
 2,-0.05244024,-0.13389060,-0.00005575,-0.03637647,-0.07796250,-0.00113
 897,-0.01240683,-0.08882627,-0.00437405,0.14801755,-0.19587736,-0.0164
 5694,-0.02298814,0.84813858,0.01423880,0.00501402,-0.04666982,-0.00051
 965,-0.00242040,0.00332730,-0.00053394,-0.00726990,0.02083314,0.019752
 95,-0.01567442,-0.06380221,-0.03602435,0.03667632,0.11067151,-0.003906
 84,0.00107702,0.00045111,-0.00731675,0.02870268,0.00161336,-0.09372417
 ,0.09842701,0.01077807,0.01305601,-0.01070688,-0.00157925,-0.00365959,
 -0.00481690,0.00016947,0.09313614,-0.00106281,0.00045156,-0.00007778,-
 0.00159892,0.00259814,0.00052262,0.11009294,-0.33707781,-0.02393471,0.
 01056721,-0.00644722,-0.00094542,-0.00135673,-0.00229844,-0.00013888,-
 0.11483796,0.34423622,0.00051832,-0.00011460,0.00381009,-0.00004073,-0
 .00154105,-0.00568632,0.01147858,-0.02329117,-0.00647274,-0.00050794,0
 .00054897,-0.00232569,0.00021465,0.00006077,0.00219328,-0.01144738,0.0
 2437694,0.00975402,-0.00157116,0.00190599,0.00059032,-0.00003521,0.000
 21888,0.00033518,-0.00277893,0.00262784,0.00023328,-0.35285873,-0.0564
 7947,0.01948301,-0.00980498,-0.00965608,0.00017220,-0.00017677,-0.0002
 4697,-0.00014225,0.36692330,0.00429026,-0.00340319,-0.00071815,-0.0034
 9800,-0.00589691,-0.00025257,-0.02280311,0.00562177,0.00186134,-0.0572
 6674,-0.06814778,0.00184949,0.01903159,0.01257349,-0.00069196,0.001079
 55,0.00024100,0.00003554,0.06148630,0.05778292,0.00083400,-0.00071400,
 0.00700632,0.00011216,-0.00044217,0.00428892,-0.00095543,0.00017946,-0
 .00105178,0.01946506,0.00179071,-0.02749471,0.00151824,0.00124712,-0.0
 0094236,-0.00007721,0.00012676,-0.00201426,-0.02056235,-0.00236348,0.0
 2234236,0.01852781,-0.01152045,-0.00186460,-0.24801801,-0.12352142,0.0
 0948267,-0.04362271,-0.02514127,0.00238300,-0.00211123,0.00746492,0.00
 024174,-0.00248233,0.00677922,0.00030466,0.00127507,0.00041569,-0.0001
 1185,0.00032179,-0.00027433,0.00000104,0.62156642,-0.04110138,-0.02242
 214,0.00148328,-0.12240559,-0.24309345,-0.00123059,-0.00470167,0.00268
 330,0.00037844,0.00572025,0.00692509,-0.00002570,0.01724665,0.00086028
 ,-0.00111777,0.00269378,-0.00192735,-0.00024651,0.00116075,0.00171566,
 -0.00001773,0.01876983,0.85402541,-0.00128121,-0.00242296,0.00345440,0
 .01274973,0.00301688,-0.04121725,0.00124030,0.00270397,0.00877806,0.00
 043724,-0.00068534,-0.00145920,-0.00042560,-0.00053505,-0.00348647,-0.
 00009426,-0.00003685,-0.00125161,0.00003529,0.00005238,0.00060047,-0.0
 3622271,0.02314361,0.10394395,-0.01308607,0.00787713,0.00174789,0.0010
 4329,-0.04288958,-0.00141686,0.01076338,-0.00411134,-0.00135976,-0.000
 26962,0.00082275,0.00009861,0.00689167,-0.00051110,-0.00041603,0.00068
 768,-0.00232868,-0.00004290,0.00008823,-0.00003036,-0.00000461,-0.0998
 3366,0.07911421,0.00835989,0.11778365,0.02196728,-0.02707945,-0.002964
 90,0.02650635,-0.04631523,-0.00210267,-0.02268343,0.02522809,0.0024673
 0,0.00137237,-0.01230227,-0.00053988,-0.01778004,-0.00753675,0.0009192
 9,-0.00097161,-0.00001531,0.00017794,-0.00099871,-0.00051200,0.0000151
 7,0.07012138,-0.47559976,-0.02032441,-0.10251361,0.57412073,0.00163556
 ,-0.00141938,0.00206474,0.00071607,0.00008197,0.01065811,-0.00156142,0
 .00107490,-0.00548298,0.00003690,-0.00032827,-0.00015619,-0.00075268,-
 0.00034717,0.00232194,0.00006568,0.00019706,0.00077775,-0.00003293,-0.
 00001368,0.00002584,0.00786435,-0.01891358,-0.04140130,-0.01071737,0.0
 2521712,0.02292002,0.02046765,-0.00868495,-0.00190040,-0.04459236,0.02
 506266,0.00549423,-0.01459754,0.00232335,0.00131871,-0.00146434,-0.002
 21044,0.00015286,-0.01208787,-0.00475765,0.00071364,-0.00094850,-0.000
 33028,0.00007657,-0.00066537,-0.00082130,-0.00002949,-0.24430334,-0.00
 127501,0.01708994,-0.01839925,0.02776441,0.00221243,0.36809833,-0.0119
 7862,0.00704355,0.00170198,-0.03538927,-0.00205198,0.00169824,0.010789
 91,-0.00804876,-0.00118385,-0.00327363,0.00221292,0.00020121,0.0057774
 6,0.00330058,-0.00036708,-0.00005539,0.00052024,0.00002005,-0.00001864
 ,-0.00008074,-0.00000629,0.04684261,-0.11223367,-0.00314344,0.06663763
 ,-0.03295285,-0.00619108,-0.09968458,0.61357247,-0.00321321,0.00165850
 ,-0.00368920,0.00043580,-0.00328622,0.00464963,0.00255203,-0.00119596,
 0.00257606,-0.00005810,0.00039919,0.00188029,0.00164146,0.00063778,0.0
 0038038,0.00005770,0.00005580,-0.00027460,0.00005244,0.00005216,0.0000
 2825,0.01858891,0.00031120,-0.02293053,0.00197277,-0.00152466,0.004320
 35,-0.02486377,-0.01944859,0.01801190,0.00739808,-0.01355333,0.0003172
 9,0.01231044,0.00608756,0.00140311,-0.00142730,-0.00391452,-0.00018118
 ,0.00557031,-0.00072177,-0.00060414,-0.00800862,-0.00774108,0.00054241
 ,0.00100016,-0.00005365,-0.00010287,0.00058345,-0.00038599,-0.00020184
 ,0.00514561,0.00787859,-0.00041273,0.00025152,-0.00812605,-0.00031133,
 -0.00729001,0.00383986,0.00033941,0.35479007,-0.01107140,-0.00618264,-
 0.00082240,-0.00060787,-0.00411440,-0.00009552,-0.00008379,0.00105709,
 0.00008627,-0.00356670,-0.00021429,0.00034634,0.00138538,0.00608199,-0
 .00048644,-0.00025366,0.00006925,0.00004701,-0.00038465,0.00035744,0.0
 0015159,0.00162672,-0.00448673,-0.00008009,-0.00099400,0.00393753,0.00
 014509,0.00074506,0.00238853,-0.00015765,-0.02245290,0.03335956,-0.001
 22700,-0.00053515,-0.00576294,0.00137336,-0.00007664,-0.00195701,0.000
 04044,-0.00051643,0.00007454,0.00040676,0.00004017,0.00038090,0.000487
 93,-0.00060732,-0.00081415,0.00014339,-0.00002180,0.00010400,0.0000919
 9,-0.00008016,0.00025636,0.00033659,0.00030743,0.00030459,-0.00011165,
 -0.00008961,-0.00000402,-0.00017975,0.00016830,-0.00043731,0.00087756,
 -0.00736077,0.05534079,0.00367493,-0.02828603,-0.00199494,-0.00610365,
 -0.00472758,0.00051886,-0.00542286,0.00247656,0.00074354,0.00972977,0.
 02092571,0.00044781,-0.05923363,-0.00851495,0.00209442,0.00114978,0.00
 074932,0.00005496,0.00027060,-0.00114352,-0.00028218,0.00206529,0.0000
 1591,-0.00012722,-0.00024605,-0.00151685,-0.00000926,-0.00049427,0.000
 14444,0.00004965,0.00010784,-0.00003734,-0.00000651,0.05446270,0.00030
 646,-0.00847920,-0.00024388,-0.00197296,0.00069853,-0.00000520,0.00235
 772,-0.00007679,-0.00033631,-0.00582292,-0.00856328,-0.00011045,-0.015
 08816,-0.35970143,-0.01489767,-0.00041947,-0.00025993,-0.00005282,0.00
 024818,0.00011765,0.00013641,0.00107971,0.00067219,-0.00010402,-0.0002
 6262,-0.00092471,-0.00003018,-0.00041368,-0.00000861,0.00003337,0.0003
 2393,-0.00032073,0.00005749,0.01998329,0.37673424,-0.00047625,0.001953
 90,-0.00463259,0.00062110,0.00012732,0.00407877,0.00073325,-0.00024246
 ,0.00344522,-0.00078717,-0.00205421,0.00200717,0.00157992,-0.01539431,
 -0.02404812,-0.00000252,-0.00012890,0.00135559,-0.00021245,0.00023253,
 -0.00300892,-0.00005095,-0.00003302,0.00075269,0.00002344,-0.00001790,
 0.00039609,0.00000785,0.00000127,-0.00004458,0.00021136,-0.00008747,-0
 .00027816,-0.00148775,0.01559442,0.01990563,-0.03225028,0.01567611,-0.
 00319008,-0.00809616,-0.00383527,-0.00102455,0.00066307,0.00264022,0.0
 0008248,-0.00418763,0.00009229,0.00048352,0.00375449,0.00689018,-0.000
 70968,-0.00066566,0.00003190,0.00007405,-0.00044650,0.00034695,0.00022
 636,-0.00114205,-0.00527111,0.00035972,-0.00077398,0.00553571,0.000197
 24,0.00308534,0.00287916,-0.00038372,-0.36889058,0.03275649,0.03818130
 ,-0.00003986,-0.00043352,-0.00017280,0.47999852,0.01235008,0.00191371,
 0.00143350,0.00102672,0.00040846,-0.00029310,0.00069482,-0.00080262,-0
 .00005332,0.00152721,0.00038751,-0.00014290,-0.00004588,-0.00252569,0.
 00035300,0.00015503,-0.00000889,-0.00002694,0.00019475,-0.00013285,-0.
 00008896,-0.00805229,0.00123890,0.00063330,0.00271077,-0.00284615,-0.0
 0020556,0.01028716,-0.01598360,0.00132342,0.04996882,-0.01709415,0.002
 71939,0.00007617,0.00013712,0.00004499,-0.09080619,0.05040162,-0.00282
 171,0.00137833,0.00440511,-0.00087540,0.00006721,0.00071159,-0.0000732
 2,0.00037175,0.00001518,-0.00035574,-0.00009276,-0.00011590,-0.0000702
 2,0.00053589,0.00057469,-0.00010003,0.00001743,-0.00004856,-0.00007613
 ,0.00004898,-0.00013305,0.00068877,-0.00032692,-0.00014802,-0.00030862
 ,0.00050477,0.00010992,-0.00103752,0.00244836,0.00172067,-0.00679623,0
 .00765486,-0.04868762,0.00000446,-0.00005318,0.00008131,0.10240288,-0.
 11684455,0.52079821,-0.00051376,0.00160318,-0.00090363,-0.00039692,0.0
 0194870,0.00008906,-0.00092558,0.00059980,0.00013569,0.00176235,0.0002
 6284,-0.00008705,-0.00102144,-0.00176997,0.00007698,0.00013310,-0.0000
 5105,-0.00001695,0.00017869,-0.00003680,-0.00001553,-0.00704486,0.0422
 6886,-0.00165989,-0.00496842,0.00122619,0.00065063,-0.04720035,0.01408
 787,0.00288997,0.00425769,-0.00549237,0.00063974,0.00007954,0.00014372
 ,-0.00000405,-0.00336531,-0.00668986,0.00010998,0.05957578,0.00367847,
 -0.00128306,-0.00029916,-0.00147089,0.00460813,0.00051403,-0.00255684,
 0.00025691,0.00012521,0.00043211,-0.00064523,-0.00007894,-0.00295623,-
 0.00224457,0.00023219,-0.00007042,-0.00007722,0.00000551,-0.00006573,-
 0.00022781,-0.00003015,0.01555633,-0.00826973,-0.00228127,-0.00358998,
 0.00283043,0.00079440,0.05172574,-0.45674383,0.02159456,-0.01088574,-0
 .01298657,0.00070844,-0.00014058,-0.00002085,0.00001602,-0.00225138,0.
 01441937,-0.00355312,-0.04843170,0.45960341,-0.00005025,-0.00007688,0.
 00019629,0.00056993,0.00020637,0.00153104,-0.00034903,0.00028415,-0.00
 059713,0.00006532,-0.00007826,-0.00012677,-0.00019612,-0.00009487,-0.0
 0056829,-0.00000544,-0.00000914,0.00007230,0.00001006,-0.00000626,0.00
 010627,-0.00122267,-0.00403696,-0.00589047,0.00200554,-0.00143362,0.00
 344554,0.00061771,0.02548490,-0.00621084,0.00090370,0.00094451,0.00242
 086,-0.00000228,-0.00000201,-0.00001970,-0.00078507,-0.00339681,-0.004
 72265,-0.00154487,-0.02010072,0.01057202,-0.00184762,0.00083156,0.0008
 6125,-0.00043153,-0.00007347,0.00027054,0.00003048,0.00012768,0.000005
 85,-0.00016449,-0.00001567,-0.00002735,-0.00000883,0.00029247,0.000138
 12,-0.00003968,0.00000998,-0.00000424,-0.00002841,0.00002548,-0.000028
 22,-0.00034380,-0.00011407,-0.00004848,0.00006764,0.00009660,0.0000061
 3,0.00039188,-0.00059881,-0.00006134,-0.00579866,0.00843104,-0.0410541
 7,-0.00000013,-0.00002967,0.00001700,-0.06764340,0.02660268,-0.0906912
 6,-0.00055050,0.00102684,-0.00001655,0.07636707,0.00042947,0.00039413,
 -0.00019130,-0.00004036,-0.00005560,0.00003775,0.00001928,-0.00000679,
 -0.00001915,0.00002166,0.00004686,0.00001952,0.00017543,-0.00009131,-0
 .00013032,-0.00000278,-0.00000423,0.00000036,0.00000757,-0.00000866,0.
 00001557,-0.00014665,-0.00008801,0.00006328,0.00006876,-0.00003231,-0.
 00006165,0.00026951,-0.00093425,-0.00045291,-0.00026374,-0.00185190,0.
 00528664,-0.00000456,-0.00000420,-0.00001218,0.03574845,-0.02951272,0.
 10784297,0.00033060,0.00078060,0.00231561,-0.03661264,0.03136840,0.001
 18663,-0.00037556,-0.00001366,0.00015599,0.00009572,0.00005140,0.00003
 011,-0.00010962,0.00000999,0.00015231,0.00000330,-0.00002677,-0.000195
 26,-0.00015346,0.00002918,0.00002729,-0.00000313,0.00000674,0.00002234
 ,-0.00000617,-0.00000973,-0.00041894,0.00032482,-0.00004931,0.00016967
 ,-0.00030393,0.00000417,0.00032699,-0.00138400,0.00001952,0.00401548,-
 0.00028534,-0.00094084,-0.00000356,0.00001403,0.00000958,-0.13574167,0
 .11454453,-0.47456088,-0.00036010,0.00235300,-0.00020846,0.13063271,-0
 .11471420,0.47567906\\-0.00001906,0.00005500,0.00000320,0.00003452,-0.
 00001357,0.00002872,-0.00001459,-0.00001369,-0.00000285,0.00002514,0.0
 0004254,-0.00001664,-0.00005025,-0.00004078,0.00000087,0.00000276,0.00
 000807,-0.00001429,-0.00000633,0.00002315,0.00000799,0.00001570,-0.000
 03735,-0.00003036,0.00000642,0.00003654,-0.00001687,0.00002081,-0.0000
 3334,-0.00001586,-0.00013151,0.00000908,0.00001807,0.00000784,0.000005
 66,0.00001919,0.00015783,-0.00005757,-0.00002612,-0.00003058,-0.000025
 35,0.00002465,-0.00001871,0.00004162,0.00002031\\\@


 When cryptography is outlawed, bayl bhgynjf jvyy unir cevinpl.
 Job cpu time:       0 days  1 hours  8 minutes 53.5 seconds.
 Elapsed time:       0 days  0 hours  2 minutes 53.0 seconds.
 File lengths (MBytes):  RWF=    163 Int=      0 D2E=      0 Chk=      9 Scr=      1
 Normal termination of Gaussian 16 at Mon Nov  6 00:28:08 2023.
