 Entering Gaussian System, Link 0=g16
 Input=bizuo.gjf
 Output=bizuo.log
 Initial command:
 /home/Tinker/g16/l1.exe "/home/Tinker/g16/scratch/Gau-1641639.inp" -scrdir="/home/Tinker/g16/scratch/"
 Entering Link 1 = /home/Tinker/g16/l1.exe PID=   1641640.
  
 Copyright (c) 1988-2019, Gaussian, Inc.  All Rights Reserved.
  
 This is part of the Gaussian(R) 16 program.  It is based on
 the Gaussian(R) 09 system (copyright 2009, Gaussian, Inc.),
 the Gaussian(R) 03 system (copyright 2003, Gaussian, Inc.),
 the Gaussian(R) 98 system (copyright 1998, Gaussian, Inc.),
 the Gaussian(R) 94 system (copyright 1995, Gaussian, Inc.),
 the Gaussian 92(TM) system (copyright 1992, Gaussian, Inc.),
 the Gaussian 90(TM) system (copyright 1990, Gaussian, Inc.),
 the Gaussian 88(TM) system (copyright 1988, Gaussian, Inc.),
 the Gaussian 86(TM) system (copyright 1986, Carnegie Mellon
 University), and the Gaussian 82(TM) system (copyright 1983,
 Carnegie Mellon University). Gaussian is a federally registered
 trademark of Gaussian, Inc.
  
 This software contains proprietary and confidential information,
 including trade secrets, belonging to Gaussian, Inc.
  
 This software is provided under written license and may be
 used, copied, transmitted, or stored only in accord with that
 written license.
  
 The following legend is applicable only to US Government
 contracts under FAR:
  
                    RESTRICTED RIGHTS LEGEND
  
 Use, reproduction and disclosure by the US Government is
 subject to restrictions as set forth in subparagraphs (a)
 and (c) of the Commercial Computer Software - Restricted
 Rights clause in FAR 52.227-19.
  
 Gaussian, Inc.
 340 Quinnipiac St., Bldg. 40, Wallingford CT 06492
  
  
 ---------------------------------------------------------------
 Warning -- This program may not be used in any manner that
 competes with the business of Gaussian, Inc. or will provide
 assistance to any competitor of Gaussian, Inc.  The licensee
 of this program is prohibited from giving any competitor of
 Gaussian, Inc. access to this program.  By using this program,
 the user acknowledges that Gaussian, Inc. is engaged in the
 business of creating and licensing software in the field of
 computational chemistry and represents and warrants to the
 licensee that it is not a competitor of Gaussian, Inc. and that
 it will not use this program in any manner prohibited above.
 ---------------------------------------------------------------
  

 Cite this work as:
 Gaussian 16, Revision C.01,
 M. J. Frisch, G. W. Trucks, H. B. Schlegel, G. E. Scuseria, 
 M. A. Robb, J. R. Cheeseman, G. Scalmani, V. Barone, 
 G. A. Petersson, H. Nakatsuji, X. Li, M. Caricato, A. V. Marenich, 
 J. Bloino, B. G. Janesko, R. Gomperts, B. Mennucci, H. P. Hratchian, 
 J. V. Ortiz, A. F. Izmaylov, J. L. Sonnenberg, D. Williams-Young, 
 F. Ding, F. Lipparini, F. Egidi, J. Goings, B. Peng, A. Petrone, 
 T. Henderson, D. Ranasinghe, V. G. Zakrzewski, J. Gao, N. Rega, 
 G. Zheng, W. Liang, M. Hada, M. Ehara, K. Toyota, R. Fukuda, 
 J. Hasegawa, M. Ishida, T. Nakajima, Y. Honda, O. Kitao, H. Nakai, 
 T. Vreven, K. Throssell, J. A. Montgomery, Jr., J. E. Peralta, 
 F. Ogliaro, M. J. Bearpark, J. J. Heyd, E. N. Brothers, K. N. Kudin, 
 V. N. Staroverov, T. A. Keith, R. Kobayashi, J. Normand, 
 K. Raghavachari, A. P. Rendell, J. C. Burant, S. S. Iyengar, 
 J. Tomasi, M. Cossi, J. M. Millam, M. Klene, C. Adamo, R. Cammi, 
 J. W. Ochterski, R. L. Martin, K. Morokuma, O. Farkas, 
 J. B. Foresman, and D. J. Fox, Gaussian, Inc., Wallingford CT, 2019.
 
 ******************************************
 Gaussian 16:  ES64L-G16RevC.01  3-Jul-2019
                27-Oct-2023 
 ******************************************
 %mem=10GB
 %nprocshared=24
 Will use up to   24 processors via shared memory.
 -----------------------------------------------------
 # opt freq 6-31+g(d,p) m062x scrf=(SMD,solvent=water)
 -----------------------------------------------------
 1/18=20,19=15,26=3,38=1/1,3;
 2/9=110,12=2,17=6,18=5,40=1/2;
 3/5=1,6=6,7=111,11=2,25=1,30=1,70=32201,71=1,72=1,74=-55/1,2,3;
 4//1;
 5/5=2,38=5,53=1/2;
 6/7=2,8=2,9=2,10=2,28=1/1;
 7//1,2,3,16;
 1/18=20,19=15,26=3/3(2);
 2/9=110/2;
 99//99;
 2/9=110/2;
 3/5=1,6=6,7=111,11=2,25=1,30=1,70=32205,71=1,72=1,74=-55/1,2,3;
 4/5=5,16=3,69=1/1;
 5/5=2,38=5,53=1/2;
 7//1,2,3,16;
 1/18=20,19=15,26=3/3(-5);
 2/9=110/2;
 6/7=2,8=2,9=2,10=2,19=2,28=1/1;
 99/9=1/99;
 -------------------
 Title Card Required
 -------------------
 Symbolic Z-matrix:
 Charge =  0 Multiplicity = 1
 N                    -0.339    -0.32      0.038 
 N                    -1.323     0.579     0.013 
 C                    -2.528    -0.021    -0.024 
 C                    -2.226    -1.365    -0.019 
 C                    -0.875    -1.502     0.02 
 H                    -3.478     0.608    -0.05 
 H                    -3.064    -2.138    -0.046 
 C                    -0.754     2.711     0.075 
 O                    -1.862     3.083     0.026 
 O                     0.365     2.42      0.126 
 H                     0.719     0.015     0.068 
 H                    -0.212    -2.429     0.037 
 
 Add virtual bond connecting atoms C8         and N2         Dist= 4.17D+00.

 GradGradGradGradGradGradGradGradGradGradGradGradGradGradGradGradGradGrad
 Berny optimization.
 Initialization pass.
                           ----------------------------
                           !    Initial Parameters    !
                           ! (Angstroms and Degrees)  !
 --------------------------                            --------------------------
 ! Name  Definition              Value          Derivative Info.                !
 --------------------------------------------------------------------------------
 ! R1    R(1,2)                  1.3331         estimate D2E/DX2                !
 ! R2    R(1,5)                  1.298          estimate D2E/DX2                !
 ! R3    R(1,11)                 1.1102         estimate D2E/DX2                !
 ! R4    R(2,3)                  1.3466         estimate D2E/DX2                !
 ! R5    R(2,8)                  2.2075         estimate D2E/DX2                !
 ! R6    R(3,4)                  1.3775         estimate D2E/DX2                !
 ! R7    R(3,6)                  1.1397         estimate D2E/DX2                !
 ! R8    R(4,5)                  1.3585         estimate D2E/DX2                !
 ! R9    R(4,7)                  1.1404         estimate D2E/DX2                !
 ! R10   R(5,12)                 1.1398         estimate D2E/DX2                !
 ! R11   R(8,9)                  1.1698         estimate D2E/DX2                !
 ! R12   R(8,10)                 1.1573         estimate D2E/DX2                !
 ! A1    A(2,1,5)              108.0018         estimate D2E/DX2                !
 ! A2    A(2,1,11)             120.0306         estimate D2E/DX2                !
 ! A3    A(5,1,11)             131.9675         estimate D2E/DX2                !
 ! A4    A(1,2,3)              111.1341         estimate D2E/DX2                !
 ! A5    A(1,2,8)              117.4213         estimate D2E/DX2                !
 ! A6    A(3,2,8)              131.433          estimate D2E/DX2                !
 ! A7    A(2,3,4)              103.7944         estimate D2E/DX2                !
 ! A8    A(2,3,6)              120.0417         estimate D2E/DX2                !
 ! A9    A(4,3,6)              136.1638         estimate D2E/DX2                !
 ! A10   A(3,4,5)              108.4528         estimate D2E/DX2                !
 ! A11   A(3,4,7)              120.0102         estimate D2E/DX2                !
 ! A12   A(5,4,7)              131.537          estimate D2E/DX2                !
 ! A13   A(1,5,4)              108.6167         estimate D2E/DX2                !
 ! A14   A(1,5,12)             120.0139         estimate D2E/DX2                !
 ! A15   A(4,5,12)             131.3694         estimate D2E/DX2                !
 ! A16   A(2,8,9)               93.5437         estimate D2E/DX2                !
 ! A17   A(2,8,10)              90.4364         estimate D2E/DX2                !
 ! A18   L(9,8,10,2,-1)        183.9801         estimate D2E/DX2                !
 ! A19   L(9,8,10,2,-2)        180.0084         estimate D2E/DX2                !
 ! D1    D(5,1,2,3)             -0.0878         estimate D2E/DX2                !
 ! D2    D(5,1,2,8)            178.8134         estimate D2E/DX2                !
 ! D3    D(11,1,2,3)           179.8948         estimate D2E/DX2                !
 ! D4    D(11,1,2,8)            -1.204          estimate D2E/DX2                !
 ! D5    D(2,1,5,4)              0.0801         estimate D2E/DX2                !
 ! D6    D(2,1,5,12)          -179.9421         estimate D2E/DX2                !
 ! D7    D(11,1,5,4)          -179.8997         estimate D2E/DX2                !
 ! D8    D(11,1,5,12)            0.0782         estimate D2E/DX2                !
 ! D9    D(1,2,3,4)              0.0572         estimate D2E/DX2                !
 ! D10   D(1,2,3,6)           -179.9439         estimate D2E/DX2                !
 ! D11   D(8,2,3,4)           -178.6419         estimate D2E/DX2                !
 ! D12   D(8,2,3,6)              1.357          estimate D2E/DX2                !
 ! D13   D(1,2,8,9)            179.5407         estimate D2E/DX2                !
 ! D14   D(1,2,8,10)            -0.4678         estimate D2E/DX2                !
 ! D15   D(3,2,8,9)             -1.8263         estimate D2E/DX2                !
 ! D16   D(3,2,8,10)           178.1653         estimate D2E/DX2                !
 ! D17   D(2,3,4,5)             -0.0075         estimate D2E/DX2                !
 ! D18   D(2,3,4,7)           -179.9854         estimate D2E/DX2                !
 ! D19   D(6,3,4,5)            179.9939         estimate D2E/DX2                !
 ! D20   D(6,3,4,7)              0.016          estimate D2E/DX2                !
 ! D21   D(3,4,5,1)             -0.0453         estimate D2E/DX2                !
 ! D22   D(3,4,5,12)           179.9803         estimate D2E/DX2                !
 ! D23   D(7,4,5,1)            179.9292         estimate D2E/DX2                !
 ! D24   D(7,4,5,12)            -0.0452         estimate D2E/DX2                !
 --------------------------------------------------------------------------------
 Trust Radius=3.00D-01 FncErr=1.00D-07 GrdErr=1.00D-06 EigMax=2.50D+02 EigMin=1.00D-04
 Number of steps in this run=     65 maximum allowed number of steps=    100.
 GradGradGradGradGradGradGradGradGradGradGradGradGradGradGradGradGradGrad

                          Input orientation:                          
 ---------------------------------------------------------------------
 Center     Atomic      Atomic             Coordinates (Angstroms)
 Number     Number       Type             X           Y           Z
 ---------------------------------------------------------------------
      1          7           0       -0.339000   -0.320000    0.038000
      2          7           0       -1.323000    0.579000    0.013000
      3          6           0       -2.528000   -0.021000   -0.024000
      4          6           0       -2.226000   -1.365000   -0.019000
      5          6           0       -0.875000   -1.502000    0.020000
      6          1           0       -3.478000    0.608000   -0.050000
      7          1           0       -3.064000   -2.138000   -0.046000
      8          6           0       -0.754000    2.711000    0.075000
      9          8           0       -1.862000    3.083000    0.026000
     10          8           0        0.365000    2.420000    0.126000
     11          1           0        0.719000    0.015000    0.068000
     12          1           0       -0.212000   -2.429000    0.037000
 ---------------------------------------------------------------------
                    Distance matrix (angstroms):
                    1          2          3          4          5
     1  N    0.000000
     2  N    1.333072   0.000000
     3  C    2.210196   1.346623   0.000000
     4  C    2.157787   2.143728   1.377521   0.000000
     5  C    1.297977   2.128688   2.219844   1.358488   0.000000
     6  H    3.274485   2.156116   1.139657   2.336920   3.351508
     7  H    3.276859   3.227484   2.183911   1.140396   2.280476
     8  C    3.059502   2.207494   3.258942   4.334674   4.215096
     9  O    3.728281   2.561388   3.175039   4.463096   4.690035
    10  O    2.830364   2.500279   3.788196   4.589175   4.114720
    11  H    1.110175   2.119171   3.248503   3.253459   2.201006
    12  H    2.112821   3.206706   3.341563   2.278471   1.139819
                    6          7          8          9         10
     6  H    0.000000
     7  H    2.777036   0.000000
     8  C    3.443604   5.372480   0.000000
     9  O    2.956832   5.358062   1.169807   0.000000
    10  O    4.252407   5.706399   1.157343   2.325747   0.000000
    11  H    4.240328   4.354250   3.072164   4.009482   2.431605
    12  H    4.460683   2.868009   5.168637   5.753674   4.884020
                   11         12
    11  H    0.000000
    12  H    2.615503   0.000000
 Stoichiometry    C4H4N2O2
 Framework group  C1[X(C4H4N2O2)]
 Deg. of freedom    30
 Full point group                 C1      NOp   1
 Largest Abelian subgroup         C1      NOp   1
 Largest concise Abelian subgroup C1      NOp   1
                         Standard orientation:                         
 ---------------------------------------------------------------------
 Center     Atomic      Atomic             Coordinates (Angstroms)
 Number     Number       Type             X           Y           Z
 ---------------------------------------------------------------------
      1          7           0       -0.846008   -1.012712   -0.013987
      2          7           0       -0.151952    0.125430   -0.012573
      3          6           0       -0.971485    1.193860    0.002158
      4          6           0       -2.232817    0.640214    0.011222
      5          6           0       -2.108708   -0.712558    0.001451
      6          1           0       -0.535949    2.247008    0.004383
      7          1           0       -3.151911    1.315195    0.024252
      8          6           0        2.050226   -0.026779    0.003903
      9          8           0        2.202953    1.132954   -0.008043
     10          8           0        1.979132   -1.181868    0.016516
     11          1           0       -0.314743   -1.987428   -0.027220
     12          1           0       -2.891657   -1.540911    0.004314
 ---------------------------------------------------------------------
 Rotational constants (GHZ):           5.1153423           1.4691234           1.1414023
 Standard basis: 6-31+G(d,p) (6D, 7F)
 There are   172 symmetry adapted cartesian basis functions of A   symmetry.
 There are   172 symmetry adapted basis functions of A   symmetry.
   172 basis functions,   284 primitive gaussians,   172 cartesian basis functions
    29 alpha electrons       29 beta electrons
       nuclear repulsion energy       345.1830446148 Hartrees.
 NAtoms=   12 NActive=   12 NUniq=   12 SFac= 1.00D+00 NAtFMM=   60 NAOKFM=F Big=F
 Integral buffers will be    131072 words long.
 Raffenetti 2 integral format.
 Two-electron integral symmetry is turned on.
 ------------------------------------------------------------------------------
 Polarizable Continuum Model (PCM)
 =================================
 Model                : PCM.
 Atomic radii         : SMD-Coulomb.
 Polarization charges : Total charges.
 Charge compensation  : None.
 Solution method      : On-the-fly selection.
 Cavity type          : VdW (van der Waals Surface) (Alpha=1.000).
 Cavity algorithm     : GePol (No added spheres)
                        Default sphere list used, NSphG=   12.
                        Lebedev-Laikov grids with approx.  5.0 points / Ang**2.
                        Smoothing algorithm: York/Karplus (Gamma=1.0000).
                        Polarization charges: spherical gaussians, with
                                              point-specific exponents (IZeta= 3).
                        Self-potential: point-specific (ISelfS= 7).
                        Self-field    : sphere-specific E.n sum rule (ISelfD= 2).
 1st derivatives      : Analytical E(r).r(x)/FMM algorithm (CHGder, D1EAlg=3).
                        Cavity 1st derivative terms included.
 Solvent              : Water, Eps=  78.355300 Eps(inf)=   1.777849
 ------------------------------------------------------------------------------
 Spheres list:
 ISph  on   Nord     Re0    Alpha      Xe            Ye            Ze
    1   N      1    1.8900  1.000     -0.846008     -1.012712     -0.013987
    2   N      2    1.8900  1.000     -0.151952      0.125430     -0.012573
    3   C      3    1.8500  1.000     -0.971485      1.193860      0.002158
    4   C      4    1.8500  1.000     -2.232817      0.640214      0.011222
    5   C      5    1.8500  1.000     -2.108708     -0.712558      0.001451
    6   H      6    1.2000  1.000     -0.535949      2.247008      0.004383
    7   H      7    1.2000  1.000     -3.151911      1.315195      0.024252
    8   C      8    1.8500  1.000      2.050226     -0.026779      0.003903
    9   O      9    1.5200  1.000      2.202953      1.132954     -0.008043
   10   O     10    1.5200  1.000      1.979132     -1.181868      0.016516
   11   H     11    1.2000  1.000     -0.314743     -1.987428     -0.027220
   12   H     12    1.2000  1.000     -2.891657     -1.540911      0.004314
 ------------------------------------------------------------------------------
 ------------------------------------------------------------------------------
 Atomic radii for non-electrostatic terms: SMD-CDS.
 ------------------------------------------------------------------------------
 Nuclear repulsion after PCM non-electrostatic terms =      345.1939557154 Hartrees.
 One-electron integrals computed using PRISM.
 NBasis=   172 RedAO= T EigKep=  4.11D-05  NBF=   172
 NBsUse=   172 1.00D-06 EigRej= -1.00D+00 NBFU=   172
 ExpMin= 4.38D-02 ExpMax= 5.48D+03 ExpMxC= 8.25D+02 IAcc=3 IRadAn=         5 AccDes= 0.00D+00
 Harris functional with IExCor= 1009 and IRadAn=       5 diagonalized for initial guess.
 HarFok:  IExCor= 1009 AccDes= 0.00D+00 IRadAn=         5 IDoV= 1 UseB2=F ITyADJ=14
 ICtDFT=  3500011 ScaDFX=  1.000000  1.000000  1.000000  1.000000
 FoFCou: FMM=F IPFlag=           0 FMFlag=      100000 FMFlg1=           0
         NFxFlg=           0 DoJE=T BraDBF=F KetDBF=T FulRan=T
         wScrn=  0.000000 ICntrl=       500 IOpCl=  0 I1Cent=   200000004 NGrid=           0
         NMat0=    1 NMatS0=      1 NMatT0=    0 NMatD0=    1 NMtDS0=    0 NMtDT0=    0
 Petite list used in FoFCou.
 Keep R1 ints in memory in canonical form, NReq=134731469.
 Requested convergence on RMS density matrix=1.00D-08 within 128 cycles.
 Requested convergence on MAX density matrix=1.00D-06.
 Requested convergence on             energy=1.00D-06.
 No special actions if energy rises.
 Inv3:  Mode=1 IEnd=     3492723.
 Iteration    1 A*A^-1 deviation from unit magnitude is 3.66D-15 for   1051.
 Iteration    1 A*A^-1 deviation from orthogonality  is 3.33D-15 for   1077    911.
 Iteration    1 A^-1*A deviation from unit magnitude is 3.00D-15 for   1051.
 Iteration    1 A^-1*A deviation from orthogonality  is 1.47D-15 for    866    366.
 Error on total polarization charges =  0.03994
 SCF Done:  E(RM062X) =  -414.608816798     A.U. after   14 cycles
            NFock= 14  Conv=0.48D-08     -V/T= 2.0083
 SMD-CDS (non-electrostatic) energy       (kcal/mol) =       6.85
 (included in total energy above)

 **********************************************************************

            Population analysis using the SCF Density.

 **********************************************************************

 Orbital symmetries:
       Occupied  (A) (A) (A) (A) (A) (A) (A) (A) (A) (A) (A) (A)
                 (A) (A) (A) (A) (A) (A) (A) (A) (A) (A) (A) (A)
                 (A) (A) (A) (A) (A)
       Virtual   (A) (A) (A) (A) (A) (A) (A) (A) (A) (A) (A) (A)
                 (A) (A) (A) (A) (A) (A) (A) (A) (A) (A) (A) (A)
                 (A) (A) (A) (A) (A) (A) (A) (A) (A) (A) (A) (A)
                 (A) (A) (A) (A) (A) (A) (A) (A) (A) (A) (A) (A)
                 (A) (A) (A) (A) (A) (A) (A) (A) (A) (A) (A) (A)
                 (A) (A) (A) (A) (A) (A) (A) (A) (A) (A) (A) (A)
                 (A) (A) (A) (A) (A) (A) (A) (A) (A) (A) (A) (A)
                 (A) (A) (A) (A) (A) (A) (A) (A) (A) (A) (A) (A)
                 (A) (A) (A) (A) (A) (A) (A) (A) (A) (A) (A) (A)
                 (A) (A) (A) (A) (A) (A) (A) (A) (A) (A) (A) (A)
                 (A) (A) (A) (A) (A) (A) (A) (A) (A) (A) (A) (A)
                 (A) (A) (A) (A) (A) (A) (A) (A) (A) (A) (A)
 The electronic state is 1-A.
 Alpha  occ. eigenvalues --  -19.70794 -19.70508 -14.84965 -14.78189 -10.74162
 Alpha  occ. eigenvalues --  -10.58477 -10.57622 -10.54212  -1.27578  -1.22366
 Alpha  occ. eigenvalues --   -1.17990  -0.92419  -0.87663  -0.68317  -0.67929
 Alpha  occ. eigenvalues --   -0.64775  -0.62843  -0.59445  -0.58676  -0.57364
 Alpha  occ. eigenvalues --   -0.53162  -0.51408  -0.47625  -0.46246  -0.42853
 Alpha  occ. eigenvalues --   -0.42852  -0.34527  -0.33160  -0.30648
 Alpha virt. eigenvalues --    0.01387   0.03366   0.04120   0.04402   0.04755
 Alpha virt. eigenvalues --    0.05496   0.05978   0.06853   0.08136   0.08937
 Alpha virt. eigenvalues --    0.09572   0.10165   0.10269   0.10798   0.11411
 Alpha virt. eigenvalues --    0.12809   0.14561   0.15582   0.15658   0.16907
 Alpha virt. eigenvalues --    0.18900   0.19470   0.20111   0.22446   0.23147
 Alpha virt. eigenvalues --    0.24004   0.25098   0.25333   0.25609   0.26376
 Alpha virt. eigenvalues --    0.27534   0.28013   0.28910   0.30925   0.31241
 Alpha virt. eigenvalues --    0.32816   0.33446   0.34267   0.34825   0.35953
 Alpha virt. eigenvalues --    0.39264   0.40961   0.44775   0.47351   0.52739
 Alpha virt. eigenvalues --    0.57666   0.71896   0.73496   0.74755   0.76148
 Alpha virt. eigenvalues --    0.76359   0.78758   0.79815   0.84297   0.90262
 Alpha virt. eigenvalues --    0.91952   0.93752   0.95172   0.96031   0.97411
 Alpha virt. eigenvalues --    0.97517   0.97901   1.01102   1.02599   1.04554
 Alpha virt. eigenvalues --    1.05706   1.15434   1.19835   1.20196   1.21743
 Alpha virt. eigenvalues --    1.24444   1.25462   1.28598   1.29198   1.30807
 Alpha virt. eigenvalues --    1.33594   1.35701   1.38425   1.38899   1.39132
 Alpha virt. eigenvalues --    1.41146   1.45389   1.48419   1.49359   1.49946
 Alpha virt. eigenvalues --    1.56005   1.57867   1.60094   1.60754   1.62850
 Alpha virt. eigenvalues --    1.76186   1.79565   1.88285   1.90255   1.94222
 Alpha virt. eigenvalues --    1.97107   2.02058   2.06077   2.08147   2.09832
 Alpha virt. eigenvalues --    2.14280   2.15854   2.16646   2.20927   2.22140
 Alpha virt. eigenvalues --    2.23215   2.25569   2.29086   2.30518   2.33237
 Alpha virt. eigenvalues --    2.35405   2.40507   2.42280   2.51483   2.53067
 Alpha virt. eigenvalues --    2.59223   2.61462   2.65462   2.65977   2.69946
 Alpha virt. eigenvalues --    2.74232   2.85058   2.90654   2.91492   2.96137
 Alpha virt. eigenvalues --    3.04724   3.04942   3.10806   3.13575   3.17492
 Alpha virt. eigenvalues --    3.33902   3.35824   3.39502   3.54374   3.77235
 Alpha virt. eigenvalues --    4.09246   4.20744   4.31975   4.44835   4.54931
 Alpha virt. eigenvalues --    4.67553   4.75882   4.95361
          Condensed to atoms (all electrons):
               1          2          3          4          5          6
     1  N    6.713008   0.149970  -0.022888  -0.189342   0.249889   0.009915
     2  N    0.149970   7.071686   0.326439  -0.147325   0.068177  -0.055003
     3  C   -0.022888   0.326439   5.215650   0.326929  -0.054612   0.402298
     4  C   -0.189342  -0.147325   0.326929   5.380096   0.449819  -0.024846
     5  C    0.249889   0.068177  -0.054612   0.449819   5.223303  -0.004860
     6  H    0.009915  -0.055003   0.402298  -0.024846  -0.004860   0.442320
     7  H    0.012633  -0.001209   0.010695   0.316509  -0.012375  -0.000393
     8  C   -0.002391   0.039130  -0.017103   0.004903  -0.014526  -0.001007
     9  O    0.001199  -0.041864  -0.031112   0.022816  -0.002034   0.001904
    10  O    0.013973  -0.066730   0.002528  -0.002981  -0.000415  -0.000100
    11  H    0.279191  -0.007810   0.000379  -0.006745   0.000477   0.000005
    12  H   -0.054656   0.017809   0.007761  -0.026699   0.386161  -0.000047
               7          8          9         10         11         12
     1  N    0.012633  -0.002391   0.001199   0.013973   0.279191  -0.054656
     2  N   -0.001209   0.039130  -0.041864  -0.066730  -0.007810   0.017809
     3  C    0.010695  -0.017103  -0.031112   0.002528   0.000379   0.007761
     4  C    0.316509   0.004903   0.022816  -0.002981  -0.006745  -0.026699
     5  C   -0.012375  -0.014526  -0.002034  -0.000415   0.000477   0.386161
     6  H   -0.000393  -0.001007   0.001904  -0.000100   0.000005  -0.000047
     7  H    0.470391   0.000209   0.000001   0.000031  -0.000033  -0.000273
     8  C    0.000209   4.329371   0.424567   0.406243  -0.001158   0.000150
     9  O    0.000001   0.424567   8.154855  -0.109569   0.000453   0.000021
    10  O    0.000031   0.406243  -0.109569   8.189899   0.005882   0.000033
    11  H   -0.000033  -0.001158   0.000453   0.005882   0.296556  -0.000914
    12  H   -0.000273   0.000150   0.000021   0.000033  -0.000914   0.436704
 Mulliken charges:
               1
     1  N   -0.160502
     2  N   -0.353271
     3  C   -0.166964
     4  C   -0.103135
     5  C   -0.289005
     6  H    0.229814
     7  H    0.203816
     8  C    0.831613
     9  O   -0.421237
    10  O   -0.438793
    11  H    0.433717
    12  H    0.233949
 Sum of Mulliken charges =  -0.00000
 Mulliken charges with hydrogens summed into heavy atoms:
               1
     1  N    0.273215
     2  N   -0.353271
     3  C    0.062849
     4  C    0.100680
     5  C   -0.055056
     8  C    0.831613
     9  O   -0.421237
    10  O   -0.438793
 Electronic spatial extent (au):  <R**2>=            945.1360
 Charge=             -0.0000 electrons
 Dipole moment (field-independent basis, Debye):
    X=             -3.0188    Y=             -2.5323    Z=             -0.0080  Tot=              3.9403
 Quadrupole moment (field-independent basis, Debye-Ang):
   XX=            -44.4264   YY=            -38.7907   ZZ=            -47.7679
   XY=              1.0312   XZ=             -0.0298   YZ=              0.1894
 Traceless Quadrupole moment (field-independent basis, Debye-Ang):
   XX=             -0.7647   YY=              4.8710   ZZ=             -4.1063
   XY=              1.0312   XZ=             -0.0298   YZ=              0.1894
 Octapole moment (field-independent basis, Debye-Ang**2):
  XXX=             -4.7547  YYY=            -11.5557  ZZZ=             -0.0339  XYY=            -15.7797
  XXY=             -8.3217  XXZ=              0.1640  XZZ=             11.7403  YZZ=             -2.4488
  YYZ=             -0.1835  XYZ=              0.0559
 Hexadecapole moment (field-independent basis, Debye-Ang**3):
 XXXX=           -843.8469 YYYY=           -237.1545 ZZZZ=            -50.0981 XXXY=              4.4473
 XXXZ=             -0.5059 YYYX=              9.2788 YYYZ=              0.6235 ZZZX=              0.2402
 ZZZY=             -0.0221 XXYY=           -198.1032 XXZZ=           -165.6705 YYZZ=            -60.5222
 XXYZ=              0.4967 YYXZ=             -0.1402 ZZXY=              2.3408
 N-N= 3.451939557154D+02 E-N=-1.658951670715D+03  KE= 4.112048416971D+02
 D1PCM: PCM CHGder 1st derivatives, ID1Alg=3 FixD1E=F DoIter=F DoCFld=F I1PDM=0.
 Calling FoFJK, ICntrl=      2127 FMM=F ISym2X=0 I1Cent= 0 IOpClX= 0 NMat=1 NMatS=1 NMatT=0.
 ***** Axes restored to original set *****
 -------------------------------------------------------------------
 Center     Atomic                   Forces (Hartrees/Bohr)
 Number     Number              X              Y              Z
 -------------------------------------------------------------------
      1        7           0.037766613    0.061733155    0.001376141
      2        7          -0.007927360    0.040425373   -0.000782760
      3        6           0.027210810    0.032454968    0.000891995
      4        6          -0.081379691   -0.058786486   -0.002547240
      5        6           0.037199618   -0.097498032    0.000665906
      6        1           0.029744238   -0.022956128    0.000843562
      7        1           0.034009286    0.014373447    0.001083924
      8        6          -0.027786566   -0.009346439   -0.001587837
      9        8           0.004979540    0.017769365    0.000595849
     10        8           0.030880228    0.014824522    0.001711718
     11        1          -0.060949201   -0.019677952   -0.001592565
     12        1          -0.023747514    0.026684207   -0.000658692
 -------------------------------------------------------------------
 Cartesian Forces:  Max     0.097498032 RMS     0.033434632

 GradGradGradGradGradGradGradGradGradGradGradGradGradGradGradGradGradGrad
 Berny optimization.
 FormGI is forming the generalized inverse of G from B-inverse, IUseBI=4.
 Internal  Forces:  Max     0.064068505 RMS     0.020508411
 Search for a local minimum.
 Step number   1 out of a maximum of   65
 All quantities printed in internal units (Hartrees-Bohrs-Radians)
 Mixed Optimization -- RFO/linear search
 Second derivative matrix not updated -- first step.
 ITU=  0
     Eigenvalues ---    0.00230   0.01602   0.02338   0.02391   0.02535
     Eigenvalues ---    0.02566   0.02649   0.02670   0.02840   0.05897
     Eigenvalues ---    0.11601   0.16000   0.16000   0.16000   0.16000
     Eigenvalues ---    0.22000   0.23206   0.24992   0.25000   0.29583
     Eigenvalues ---    0.29636   0.29651   0.32581   0.45258   0.47565
     Eigenvalues ---    0.54223   0.56645   0.64670   1.21585   1.29548
 RFO step:  Lambda=-6.56923694D-02 EMin= 2.30000000D-03
 Linear search not attempted -- first point.
 Maximum step size (   0.300) exceeded in Quadratic search.
    -- Step size scaled by   0.627
 Iteration  1 RMS(Cart)=  0.07101670 RMS(Int)=  0.00079743
 Iteration  2 RMS(Cart)=  0.00091438 RMS(Int)=  0.00008732
 Iteration  3 RMS(Cart)=  0.00000038 RMS(Int)=  0.00008732
 Variable       Old X    -DE/DX   Delta X   Delta X   Delta X     New X
                                 (Linear)    (Quad)   (Total)
    R1        2.51914   0.00136   0.00000  -0.00040  -0.00060   2.51855
    R2        2.45282   0.06280   0.00000   0.05582   0.05570   2.50852
    R3        2.09793  -0.06407   0.00000  -0.10266  -0.10266   1.99527
    R4        2.54475  -0.00401   0.00000  -0.00852  -0.00852   2.53623
    R5        4.17156   0.02456   0.00000   0.12357   0.12357   4.29513
    R6        2.60314   0.03748   0.00000   0.04091   0.04110   2.64423
    R7        2.15364  -0.03748   0.00000  -0.06492  -0.06492   2.08872
    R8        2.56717   0.01323   0.00000   0.01792   0.01804   2.58521
    R9        2.15504  -0.03476   0.00000  -0.06031  -0.06031   2.09472
   R10        2.15395  -0.03553   0.00000  -0.06156  -0.06156   2.09239
   R11        2.21062   0.00090   0.00000   0.00044   0.00044   2.21106
   R12        2.18706   0.02622   0.00000   0.01208   0.01208   2.19914
    A1        1.88499   0.02774   0.00000   0.06263   0.06236   1.94735
    A2        2.09493  -0.01348   0.00000  -0.03024  -0.03010   2.06483
    A3        2.30327  -0.01426   0.00000  -0.03239  -0.03226   2.27101
    A4        1.93966  -0.03199   0.00000  -0.07566  -0.07584   1.86382
    A5        2.04939   0.01597   0.00000   0.03776   0.03785   2.08724
    A6        2.29394   0.01602   0.00000   0.03788   0.03797   2.33191
    A7        1.81155   0.04269   0.00000   0.08108   0.08125   1.89280
    A8        2.09512  -0.01842   0.00000  -0.03242  -0.03251   2.06262
    A9        2.37651  -0.02426   0.00000  -0.04866  -0.04874   2.32777
   A10        1.89286  -0.02200   0.00000  -0.04432  -0.04404   1.84882
   A11        2.09457   0.02446   0.00000   0.05955   0.05941   2.15399
   A12        2.29575  -0.00245   0.00000  -0.01524  -0.01538   2.28038
   A13        1.89572  -0.01643   0.00000  -0.02373  -0.02373   1.87199
   A14        2.09464   0.01231   0.00000   0.02326   0.02326   2.11789
   A15        2.29283   0.00411   0.00000   0.00047   0.00048   2.29330
   A16        1.63265   0.01106   0.00000   0.04375   0.04375   1.67640
   A17        1.57841   0.01866   0.00000   0.05886   0.05886   1.63727
   A18        3.21106   0.02972   0.00000   0.10261   0.10261   3.31367
   A19        3.14174   0.00001   0.00000   0.00004   0.00004   3.14178
    D1       -0.00153   0.00008   0.00000   0.00104   0.00103  -0.00050
    D2        3.12088   0.00019   0.00000   0.00050   0.00052   3.12140
    D3        3.13976   0.00006   0.00000   0.00078   0.00075   3.14051
    D4       -0.02101   0.00016   0.00000   0.00023   0.00024  -0.02078
    D5        0.00140  -0.00006   0.00000  -0.00082  -0.00084   0.00056
    D6       -3.14058  -0.00002   0.00000  -0.00040  -0.00041  -3.14099
    D7       -3.13984  -0.00003   0.00000  -0.00051  -0.00052  -3.14036
    D8        0.00136   0.00000   0.00000  -0.00009  -0.00009   0.00127
    D9        0.00100  -0.00004   0.00000  -0.00077  -0.00076   0.00024
   D10       -3.14061  -0.00004   0.00000  -0.00068  -0.00067  -3.14128
   D11       -3.11789  -0.00003   0.00000   0.00019   0.00019  -3.11770
   D12        0.02368  -0.00003   0.00000   0.00028   0.00028   0.02396
   D13        3.13358   0.00032   0.00000   0.00175   0.00175   3.13533
   D14       -0.00816   0.00032   0.00000   0.00171   0.00171  -0.00645
   D15       -0.03188  -0.00018   0.00000  -0.00042  -0.00043  -0.03230
   D16        3.10957  -0.00018   0.00000  -0.00046  -0.00047   3.10910
   D17       -0.00013  -0.00001   0.00000   0.00020   0.00021   0.00008
   D18       -3.14134   0.00001   0.00000   0.00013   0.00013  -3.14121
   D19        3.14149  -0.00001   0.00000   0.00009   0.00010   3.14159
   D20        0.00028   0.00001   0.00000   0.00002   0.00002   0.00030
   D21       -0.00079   0.00007   0.00000   0.00043   0.00041  -0.00038
   D22        3.14125   0.00003   0.00000  -0.00006  -0.00008   3.14117
   D23        3.14036   0.00006   0.00000   0.00053   0.00053   3.14089
   D24       -0.00079   0.00002   0.00000   0.00004   0.00004  -0.00075
         Item               Value     Threshold  Converged?
 Maximum Force            0.064069     0.000450     NO 
 RMS     Force            0.020508     0.000300     NO 
 Maximum Displacement     0.274518     0.001800     NO 
 RMS     Displacement     0.070883     0.001200     NO 
 Predicted change in Energy=-3.124022D-02
 GradGradGradGradGradGradGradGradGradGradGradGradGradGradGradGradGradGrad

                          Input orientation:                          
 ---------------------------------------------------------------------
 Center     Atomic      Atomic             Coordinates (Angstroms)
 Number     Number       Type             X           Y           Z
 ---------------------------------------------------------------------
      1          7           0       -0.371575   -0.340572    0.037131
      2          7           0       -1.321952    0.593468    0.012722
      3          6           0       -2.498436   -0.051392   -0.023517
      4          6           0       -2.249004   -1.428247   -0.020574
      5          6           0       -0.888211   -1.563223    0.018694
      6          1           0       -3.423992    0.552274   -0.048617
      7          1           0       -3.050221   -2.193816   -0.046630
      8          6           0       -0.739214    2.789471    0.075883
      9          8           0       -1.830791    3.208123    0.029165
     10          8           0        0.401518    2.565268    0.128291
     11          1           0        0.636630   -0.028348    0.066375
     12          1           0       -0.241753   -2.462006    0.035077
 ---------------------------------------------------------------------
                    Distance matrix (angstroms):
                    1          2          3          4          5
     1  N    0.000000
     2  N    1.332758   0.000000
     3  C    2.147286   1.342115   0.000000
     4  C    2.170508   2.224380   1.399269   0.000000
     5  C    1.327451   2.199882   2.209125   1.368034   0.000000
     6  H    3.181474   2.103339   1.105305   2.303008   3.303035
     7  H    3.258324   3.280151   2.212460   1.108478   2.253043
     8  C    3.151798   2.272884   3.342940   4.480839   4.355619
     9  O    3.837006   2.663758   3.327606   4.655459   4.863569
    10  O    3.008304   2.621393   3.908925   4.795372   4.326645
    11  H    1.055849   2.055621   3.136439   3.208452   2.164083
    12  H    2.125403   3.240872   3.302591   2.258497   1.107243
                    6          7          8          9         10
     6  H    0.000000
     7  H    2.771411   0.000000
     8  C    3.496940   5.494444   0.000000
     9  O    3.098043   5.538384   1.170040   0.000000
    10  O    4.326427   5.881666   1.163737   2.325144   0.000000
    11  H    4.103535   4.277253   3.135784   4.069926   2.604987
    12  H    4.384009   2.822427   5.275144   5.888585   5.069120
                   11         12
    11  H    0.000000
    12  H    2.587514   0.000000
 Stoichiometry    C4H4N2O2
 Framework group  C1[X(C4H4N2O2)]
 Deg. of freedom    30
 Full point group                 C1      NOp   1
 Largest Abelian subgroup         C1      NOp   1
 Largest concise Abelian subgroup C1      NOp   1
                         Standard orientation:                         
 ---------------------------------------------------------------------
 Center     Atomic      Atomic             Coordinates (Angstroms)
 Number     Number       Type             X           Y           Z
 ---------------------------------------------------------------------
      1          7           0       -0.894480   -0.987625   -0.013366
      2          7           0       -0.164096    0.127176   -0.012955
      3          6           0       -1.026354    1.155553    0.002060
      4          6           0       -2.327942    0.642001    0.011388
      5          6           0       -2.194481   -0.719471    0.001413
      6          1           0       -0.615134    2.181511    0.004620
      7          1           0       -3.235280    1.278636    0.023958
      8          6           0        2.104142   -0.017153    0.003400
      9          8           0        2.301182    1.136126   -0.007342
     10          8           0        2.107473   -1.180819    0.015778
     11          1           0       -0.391339   -1.915808   -0.025305
     12          1           0       -2.949646   -1.529229    0.003914
 ---------------------------------------------------------------------
 Rotational constants (GHZ):           5.2354339           1.3465042           1.0710996
 Standard basis: 6-31+G(d,p) (6D, 7F)
 There are   172 symmetry adapted cartesian basis functions of A   symmetry.
 There are   172 symmetry adapted basis functions of A   symmetry.
   172 basis functions,   284 primitive gaussians,   172 cartesian basis functions
    29 alpha electrons       29 beta electrons
       nuclear repulsion energy       339.9613452781 Hartrees.
 NAtoms=   12 NActive=   12 NUniq=   12 SFac= 1.00D+00 NAtFMM=   60 NAOKFM=F Big=F
 Integral buffers will be    131072 words long.
 Raffenetti 2 integral format.
 Two-electron integral symmetry is turned on.
 ------------------------------------------------------------------------------
 Polarizable Continuum Model (PCM)
 =================================
 Model                : PCM.
 Atomic radii         : SMD-Coulomb.
 Polarization charges : Total charges.
 Charge compensation  : None.
 Solution method      : On-the-fly selection.
 Cavity type          : VdW (van der Waals Surface) (Alpha=1.000).
 Cavity algorithm     : GePol (No added spheres)
                        Default sphere list used, NSphG=   12.
                        Lebedev-Laikov grids with approx.  5.0 points / Ang**2.
                        Smoothing algorithm: York/Karplus (Gamma=1.0000).
                        Polarization charges: spherical gaussians, with
                                              point-specific exponents (IZeta= 3).
                        Self-potential: point-specific (ISelfS= 7).
                        Self-field    : sphere-specific E.n sum rule (ISelfD= 2).
 1st derivatives      : Analytical E(r).r(x)/FMM algorithm (CHGder, D1EAlg=3).
                        Cavity 1st derivative terms included.
 Solvent              : Water, Eps=  78.355300 Eps(inf)=   1.777849
 ------------------------------------------------------------------------------
 Spheres list:
 ISph  on   Nord     Re0    Alpha      Xe            Ye            Ze
    1   N      1    1.8900  1.000     -0.894480     -0.987625     -0.013366
    2   N      2    1.8900  1.000     -0.164096      0.127176     -0.012955
    3   C      3    1.8500  1.000     -1.026354      1.155553      0.002060
    4   C      4    1.8500  1.000     -2.327942      0.642001      0.011388
    5   C      5    1.8500  1.000     -2.194481     -0.719471      0.001413
    6   H      6    1.2000  1.000     -0.615134      2.181511      0.004620
    7   H      7    1.2000  1.000     -3.235280      1.278636      0.023958
    8   C      8    1.8500  1.000      2.104142     -0.017153      0.003400
    9   O      9    1.5200  1.000      2.301182      1.136126     -0.007342
   10   O     10    1.5200  1.000      2.107473     -1.180819      0.015778
   11   H     11    1.2000  1.000     -0.391339     -1.915808     -0.025305
   12   H     12    1.2000  1.000     -2.949646     -1.529229      0.003914
 ------------------------------------------------------------------------------
 ------------------------------------------------------------------------------
 Atomic radii for non-electrostatic terms: SMD-CDS.
 ------------------------------------------------------------------------------
 Nuclear repulsion after PCM non-electrostatic terms =      339.9722789536 Hartrees.
 One-electron integrals computed using PRISM.
 NBasis=   172 RedAO= T EigKep=  4.51D-05  NBF=   172
 NBsUse=   172 1.00D-06 EigRej= -1.00D+00 NBFU=   172
 Initial guess from the checkpoint file:  "/home/Tinker/g16/scratch/Gau-1641640.chk"
 B after Tr=    -0.000000    0.000000   -0.000000
         Rot=    0.999998   -0.000106   -0.000047   -0.001754 Ang=  -0.20 deg.
 ExpMin= 4.38D-02 ExpMax= 5.48D+03 ExpMxC= 8.25D+02 IAcc=3 IRadAn=         5 AccDes= 0.00D+00
 Harris functional with IExCor= 1009 and IRadAn=       5 diagonalized for initial guess.
 HarFok:  IExCor= 1009 AccDes= 0.00D+00 IRadAn=         5 IDoV= 1 UseB2=F ITyADJ=14
 ICtDFT=  3500011 ScaDFX=  1.000000  1.000000  1.000000  1.000000
 FoFCou: FMM=F IPFlag=           0 FMFlag=      100000 FMFlg1=           0
         NFxFlg=           0 DoJE=T BraDBF=F KetDBF=T FulRan=T
         wScrn=  0.000000 ICntrl=       500 IOpCl=  0 I1Cent=   200000004 NGrid=           0
         NMat0=    1 NMatS0=      1 NMatT0=    0 NMatD0=    1 NMtDS0=    0 NMtDT0=    0
 Petite list used in FoFCou.
 Keep R1 ints in memory in canonical form, NReq=134731469.
 Requested convergence on RMS density matrix=1.00D-08 within 128 cycles.
 Requested convergence on MAX density matrix=1.00D-06.
 Requested convergence on             energy=1.00D-06.
 No special actions if energy rises.
 Inv3:  Mode=1 IEnd=     3722988.
 Iteration    1 A*A^-1 deviation from unit magnitude is 3.55D-15 for   1083.
 Iteration    1 A*A^-1 deviation from orthogonality  is 3.58D-15 for   1097    111.
 Iteration    1 A^-1*A deviation from unit magnitude is 3.55D-15 for   1083.
 Iteration    1 A^-1*A deviation from orthogonality  is 2.98D-14 for   1026    993.
 Error on total polarization charges =  0.03914
 SCF Done:  E(RM062X) =  -414.637348711     A.U. after   12 cycles
            NFock= 12  Conv=0.56D-08     -V/T= 2.0084
 SMD-CDS (non-electrostatic) energy       (kcal/mol) =       6.86
 (included in total energy above)
 D1PCM: PCM CHGder 1st derivatives, ID1Alg=3 FixD1E=F DoIter=F DoCFld=F I1PDM=0.
 Calling FoFJK, ICntrl=      2127 FMM=F ISym2X=0 I1Cent= 0 IOpClX= 0 NMat=1 NMatS=1 NMatT=0.
 ***** Axes restored to original set *****
 -------------------------------------------------------------------
 Center     Atomic                   Forces (Hartrees/Bohr)
 Number     Number              X              Y              Z
 -------------------------------------------------------------------
      1        7           0.029572827    0.028358195    0.001018708
      2        7          -0.011621444    0.003480385   -0.000656822
      3        6           0.012457200    0.018424190    0.000414706
      4        6          -0.043721753   -0.018536525   -0.001336735
      5        6           0.020514909   -0.040850191    0.000406376
      6        1           0.011452737   -0.012579668    0.000317869
      7        1           0.018541812    0.007733090    0.000592064
      8        6          -0.011106576    0.005673760   -0.000475998
      9        8           0.003412092    0.003245112    0.000255518
     10        8           0.011769266    0.003133342    0.000578165
     11        1          -0.030416214   -0.012415768   -0.000810715
     12        1          -0.010854854    0.014334077   -0.000303136
 -------------------------------------------------------------------
 Cartesian Forces:  Max     0.043721753 RMS     0.015892359

 GradGradGradGradGradGradGradGradGradGradGradGradGradGradGradGradGradGrad
 Berny optimization.
 Using GEDIIS/GDIIS optimizer.
 FormGI is forming the generalized inverse of G from B-inverse, IUseBI=4.
 Internal  Forces:  Max     0.032736205 RMS     0.008408435
 Search for a local minimum.
 Step number   2 out of a maximum of   65
 All quantities printed in internal units (Hartrees-Bohrs-Radians)
 Mixed Optimization -- RFO/linear search
 Update second derivatives using D2CorX and points    1    2
 DE= -2.85D-02 DEPred=-3.12D-02 R= 9.13D-01
 TightC=F SS=  1.41D+00  RLast= 3.00D-01 DXNew= 5.0454D-01 9.0005D-01
 Trust test= 9.13D-01 RLast= 3.00D-01 DXMaxT set to 5.05D-01
 ITU=  1  0
 Use linear search instead of GDIIS.
     Eigenvalues ---    0.00230   0.01558   0.02341   0.02391   0.02529
     Eigenvalues ---    0.02566   0.02649   0.02667   0.02841   0.06058
     Eigenvalues ---    0.12644   0.15634   0.16000   0.16000   0.16147
     Eigenvalues ---    0.21979   0.24979   0.24989   0.26870   0.29052
     Eigenvalues ---    0.29622   0.30518   0.31589   0.45739   0.47495
     Eigenvalues ---    0.54282   0.56220   0.65854   1.21625   1.29262
 RFO step:  Lambda=-4.09917143D-03 EMin= 2.30000932D-03
 Quartic linear search produced a step of  0.63110.
 Iteration  1 RMS(Cart)=  0.05367278 RMS(Int)=  0.00053317
 Iteration  2 RMS(Cart)=  0.00068409 RMS(Int)=  0.00010982
 Iteration  3 RMS(Cart)=  0.00000054 RMS(Int)=  0.00010982
 Variable       Old X    -DE/DX   Delta X   Delta X   Delta X     New X
                                 (Linear)    (Quad)   (Total)
    R1        2.51855   0.00405  -0.00038   0.01049   0.00987   2.52841
    R2        2.50852   0.02207   0.03515   0.00094   0.03593   2.54445
    R3        1.99527  -0.03274  -0.06479  -0.04925  -0.11404   1.88122
    R4        2.53623  -0.00440  -0.00538  -0.00965  -0.01502   2.52121
    R5        4.29513   0.01270   0.07799   0.09592   0.17391   4.46904
    R6        2.64423   0.01096   0.02594  -0.00897   0.01721   2.66144
    R7        2.08872  -0.01647  -0.04097  -0.01700  -0.05797   2.03075
    R8        2.58521   0.01087   0.01138   0.01903   0.03055   2.61576
    R9        2.09472  -0.01876  -0.03806  -0.03474  -0.07280   2.02192
   R10        2.09239  -0.01798  -0.03885  -0.02895  -0.06780   2.02458
   R11        2.21106  -0.00203   0.00028  -0.00313  -0.00285   2.20820
   R12        2.19914   0.01095   0.00763   0.00217   0.00980   2.20894
    A1        1.94735   0.00597   0.03936  -0.02330   0.01572   1.96307
    A2        2.06483  -0.00013  -0.01900   0.03859   0.01977   2.08459
    A3        2.27101  -0.00584  -0.02036  -0.01529  -0.03548   2.23553
    A4        1.86382  -0.00755  -0.04786   0.02493  -0.02315   1.84066
    A5        2.08724   0.00317   0.02389  -0.01628   0.00772   2.09496
    A6        2.33191   0.00438   0.02396  -0.00864   0.01543   2.34734
    A7        1.89280   0.01440   0.05127  -0.01047   0.04102   1.93382
    A8        2.06262  -0.00273  -0.02051   0.03925   0.01864   2.08125
    A9        2.32777  -0.01167  -0.03076  -0.02879  -0.05965   2.26811
   A10        1.84882  -0.00714  -0.02779   0.00329  -0.02414   1.82468
   A11        2.15399   0.01114   0.03750   0.02555   0.06286   2.21685
   A12        2.28038  -0.00400  -0.00971  -0.02884  -0.03872   2.24165
   A13        1.87199  -0.00568  -0.01498   0.00555  -0.00944   1.86255
   A14        2.11789   0.00330   0.01468  -0.01283   0.00185   2.11974
   A15        2.29330   0.00238   0.00030   0.00728   0.00759   2.30089
   A16        1.67640   0.00235   0.02761  -0.02381   0.00380   1.68020
   A17        1.63727   0.00471   0.03715  -0.02608   0.01107   1.64835
   A18        3.31367   0.00705   0.06476  -0.04989   0.01487   3.32854
   A19        3.14178  -0.00001   0.00003  -0.00041  -0.00038   3.14140
    D1       -0.00050   0.00005   0.00065   0.00052   0.00116   0.00066
    D2        3.12140   0.00008   0.00033   0.00098   0.00132   3.12272
    D3        3.14051   0.00003   0.00048   0.00058   0.00103   3.14154
    D4       -0.02078   0.00006   0.00015   0.00105   0.00119  -0.01958
    D5        0.00056  -0.00005  -0.00053  -0.00055  -0.00111  -0.00055
    D6       -3.14099  -0.00002  -0.00026  -0.00033  -0.00061   3.14158
    D7       -3.14036  -0.00003  -0.00033  -0.00065  -0.00099  -3.14136
    D8        0.00127  -0.00001  -0.00006  -0.00043  -0.00050   0.00077
    D9        0.00024  -0.00003  -0.00048  -0.00028  -0.00075  -0.00050
   D10       -3.14128  -0.00003  -0.00042  -0.00023  -0.00064   3.14127
   D11       -3.11770  -0.00001   0.00012  -0.00081  -0.00069  -3.11839
   D12        0.02396  -0.00001   0.00018  -0.00076  -0.00058   0.02338
   D13        3.13533   0.00011   0.00111   0.00446   0.00557   3.14090
   D14       -0.00645   0.00012   0.00108   0.00487   0.00595  -0.00050
   D15       -0.03230  -0.00002  -0.00027   0.00549   0.00522  -0.02709
   D16        3.10910  -0.00002  -0.00029   0.00589   0.00560   3.11470
   D17        0.00008   0.00000   0.00014  -0.00004   0.00010   0.00019
   D18       -3.14121   0.00000   0.00008  -0.00003   0.00004  -3.14117
   D19        3.14159   0.00000   0.00007  -0.00009  -0.00001   3.14158
   D20        0.00030   0.00000   0.00001  -0.00008  -0.00007   0.00022
   D21       -0.00038   0.00003   0.00026   0.00034   0.00059   0.00021
   D22        3.14117   0.00000  -0.00005   0.00009   0.00002   3.14119
   D23        3.14089   0.00003   0.00033   0.00034   0.00067   3.14156
   D24       -0.00075   0.00001   0.00002   0.00009   0.00010  -0.00065
         Item               Value     Threshold  Converged?
 Maximum Force            0.032736     0.000450     NO 
 RMS     Force            0.008408     0.000300     NO 
 Maximum Displacement     0.179940     0.001800     NO 
 RMS     Displacement     0.053527     0.001200     NO 
 Predicted change in Energy=-7.074881D-03
 GradGradGradGradGradGradGradGradGradGradGradGradGradGradGradGradGradGrad

                          Input orientation:                          
 ---------------------------------------------------------------------
 Center     Atomic      Atomic             Coordinates (Angstroms)
 Number     Number       Type             X           Y           Z
 ---------------------------------------------------------------------
      1          7           0       -0.381354   -0.356391    0.037948
      2          7           0       -1.327291    0.589516    0.012420
      3          6           0       -2.487356   -0.068445   -0.024140
      4          6           0       -2.273082   -1.460422   -0.022425
      5          6           0       -0.896556   -1.600235    0.018143
      6          1           0       -3.406160    0.488303   -0.049676
      7          1           0       -3.019064   -2.227029   -0.047443
      8          6           0       -0.718880    2.873909    0.077207
      9          8           0       -1.807324    3.297050    0.035903
     10          8           0        0.429423    2.660489    0.124408
     11          1           0        0.577152   -0.089138    0.067313
     12          1           0       -0.266509   -2.466606    0.034342
 ---------------------------------------------------------------------
                    Distance matrix (angstroms):
                    1          2          3          4          5
     1  N    0.000000
     2  N    1.337979   0.000000
     3  C    2.126502   1.334166   0.000000
     4  C    2.191156   2.257871   1.408374   0.000000
     5  C    1.346466   2.231720   2.208804   1.384203   0.000000
     6  H    3.141757   2.082258   1.074626   2.254360   3.265686
     7  H    3.234824   3.286123   2.223228   1.069953   2.214094
     8  C    3.248123   2.364912   3.434418   4.605638   4.478060
     9  O    3.921865   2.749858   3.434036   4.780572   4.981286
    10  O    3.125124   2.717997   3.997092   4.930213   4.463550
    11  H    0.995501   2.022496   3.065942   3.164223   2.111314
    12  H    2.113341   3.235062   3.269061   2.245432   1.071364
                    6          7          8          9         10
     6  H    0.000000
     7  H    2.742786   0.000000
     8  C    3.595648   5.596959   0.000000
     9  O    3.233057   5.656032   1.168531   0.000000
    10  O    4.411393   5.984097   1.168921   2.327247   0.000000
    11  H    4.026649   4.185274   3.234107   4.141616   2.754184
    12  H    4.312303   2.764172   5.359812   5.966058   5.174895
                   11         12
    11  H    0.000000
    12  H    2.522936   0.000000
 Stoichiometry    C4H4N2O2
 Framework group  C1[X(C4H4N2O2)]
 Deg. of freedom    30
 Full point group                 C1      NOp   1
 Largest Abelian subgroup         C1      NOp   1
 Largest concise Abelian subgroup C1      NOp   1
                         Standard orientation:                         
 ---------------------------------------------------------------------
 Center     Atomic      Atomic             Coordinates (Angstroms)
 Number     Number       Type             X           Y           Z
 ---------------------------------------------------------------------
      1          7           0       -0.928899   -0.983945   -0.010630
      2          7           0       -0.190016    0.131508   -0.013036
      3          6           0       -1.065534    1.138137   -0.000094
      4          6           0       -2.387092    0.651416    0.010082
      5          6           0       -2.250360   -0.725997    0.002618
      6          1           0       -0.702632    2.149632    0.001040
      7          1           0       -3.286744    1.230476    0.020891
      8          6           0        2.170463   -0.012313    0.003205
      9          8           0        2.368500    1.139294   -0.003748
     10          8           0        2.189925   -1.181042    0.011454
     11          1           0       -0.476366   -1.870605   -0.018952
     12          1           0       -2.974120   -1.515920    0.006166
 ---------------------------------------------------------------------
 Rotational constants (GHZ):           5.2716032           1.2685811           1.0225532
 Standard basis: 6-31+G(d,p) (6D, 7F)
 There are   172 symmetry adapted cartesian basis functions of A   symmetry.
 There are   172 symmetry adapted basis functions of A   symmetry.
   172 basis functions,   284 primitive gaussians,   172 cartesian basis functions
    29 alpha electrons       29 beta electrons
       nuclear repulsion energy       336.3263991607 Hartrees.
 NAtoms=   12 NActive=   12 NUniq=   12 SFac= 1.00D+00 NAtFMM=   60 NAOKFM=F Big=F
 Integral buffers will be    131072 words long.
 Raffenetti 2 integral format.
 Two-electron integral symmetry is turned on.
 ------------------------------------------------------------------------------
 Polarizable Continuum Model (PCM)
 =================================
 Model                : PCM.
 Atomic radii         : SMD-Coulomb.
 Polarization charges : Total charges.
 Charge compensation  : None.
 Solution method      : On-the-fly selection.
 Cavity type          : VdW (van der Waals Surface) (Alpha=1.000).
 Cavity algorithm     : GePol (No added spheres)
                        Default sphere list used, NSphG=   12.
                        Lebedev-Laikov grids with approx.  5.0 points / Ang**2.
                        Smoothing algorithm: York/Karplus (Gamma=1.0000).
                        Polarization charges: spherical gaussians, with
                                              point-specific exponents (IZeta= 3).
                        Self-potential: point-specific (ISelfS= 7).
                        Self-field    : sphere-specific E.n sum rule (ISelfD= 2).
 1st derivatives      : Analytical E(r).r(x)/FMM algorithm (CHGder, D1EAlg=3).
                        Cavity 1st derivative terms included.
 Solvent              : Water, Eps=  78.355300 Eps(inf)=   1.777849
 ------------------------------------------------------------------------------
 Spheres list:
 ISph  on   Nord     Re0    Alpha      Xe            Ye            Ze
    1   N      1    1.8900  1.000     -0.928899     -0.983945     -0.010630
    2   N      2    1.8900  1.000     -0.190016      0.131508     -0.013036
    3   C      3    1.8500  1.000     -1.065534      1.138137     -0.000094
    4   C      4    1.8500  1.000     -2.387092      0.651416      0.010082
    5   C      5    1.8500  1.000     -2.250360     -0.725997      0.002618
    6   H      6    1.2000  1.000     -0.702632      2.149632      0.001040
    7   H      7    1.2000  1.000     -3.286744      1.230476      0.020891
    8   C      8    1.8500  1.000      2.170463     -0.012313      0.003205
    9   O      9    1.5200  1.000      2.368500      1.139294     -0.003748
   10   O     10    1.5200  1.000      2.189925     -1.181042      0.011454
   11   H     11    1.2000  1.000     -0.476366     -1.870605     -0.018952
   12   H     12    1.2000  1.000     -2.974120     -1.515920      0.006166
 ------------------------------------------------------------------------------
 ------------------------------------------------------------------------------
 Atomic radii for non-electrostatic terms: SMD-CDS.
 ------------------------------------------------------------------------------
 Nuclear repulsion after PCM non-electrostatic terms =      336.3373915348 Hartrees.
 One-electron integrals computed using PRISM.
 NBasis=   172 RedAO= T EigKep=  4.99D-05  NBF=   172
 NBsUse=   172 1.00D-06 EigRej= -1.00D+00 NBFU=   172
 Initial guess from the checkpoint file:  "/home/Tinker/g16/scratch/Gau-1641640.chk"
 B after Tr=     0.000000   -0.000000   -0.000000
         Rot=    0.999999   -0.000045   -0.000040   -0.001051 Ang=  -0.12 deg.
 ExpMin= 4.38D-02 ExpMax= 5.48D+03 ExpMxC= 8.25D+02 IAcc=3 IRadAn=         5 AccDes= 0.00D+00
 Harris functional with IExCor= 1009 and IRadAn=       5 diagonalized for initial guess.
 HarFok:  IExCor= 1009 AccDes= 0.00D+00 IRadAn=         5 IDoV= 1 UseB2=F ITyADJ=14
 ICtDFT=  3500011 ScaDFX=  1.000000  1.000000  1.000000  1.000000
 FoFCou: FMM=F IPFlag=           0 FMFlag=      100000 FMFlg1=           0
         NFxFlg=           0 DoJE=T BraDBF=F KetDBF=T FulRan=T
         wScrn=  0.000000 ICntrl=       500 IOpCl=  0 I1Cent=   200000004 NGrid=           0
         NMat0=    1 NMatS0=      1 NMatT0=    0 NMatD0=    1 NMtDS0=    0 NMtDT0=    0
 Petite list used in FoFCou.
 Keep R1 ints in memory in canonical form, NReq=134731469.
 Requested convergence on RMS density matrix=1.00D-08 within 128 cycles.
 Requested convergence on MAX density matrix=1.00D-06.
 Requested convergence on             energy=1.00D-06.
 No special actions if energy rises.
 Inv3:  Mode=1 IEnd=     3743067.
 Iteration    1 A*A^-1 deviation from unit magnitude is 2.89D-15 for    374.
 Iteration    1 A*A^-1 deviation from orthogonality  is 2.34D-15 for   1115    937.
 Iteration    1 A^-1*A deviation from unit magnitude is 2.66D-15 for   1093.
 Iteration    1 A^-1*A deviation from orthogonality  is 9.08D-15 for   1095    994.
 Error on total polarization charges =  0.03831
 SCF Done:  E(RM062X) =  -414.643983987     A.U. after   12 cycles
            NFock= 12  Conv=0.60D-08     -V/T= 2.0082
 SMD-CDS (non-electrostatic) energy       (kcal/mol) =       6.90
 (included in total energy above)
 D1PCM: PCM CHGder 1st derivatives, ID1Alg=3 FixD1E=F DoIter=F DoCFld=F I1PDM=0.
 Calling FoFJK, ICntrl=      2127 FMM=F ISym2X=0 I1Cent= 0 IOpClX= 0 NMat=1 NMatS=1 NMatT=0.
 ***** Axes restored to original set *****
 -------------------------------------------------------------------
 Center     Atomic                   Forces (Hartrees/Bohr)
 Number     Number              X              Y              Z
 -------------------------------------------------------------------
      1        7          -0.017382169   -0.003192383   -0.000567440
      2        7          -0.004596906   -0.005117794   -0.000230030
      3        6           0.009861283   -0.000719856    0.000248199
      4        6           0.003109594    0.005930503    0.000089810
      5        6          -0.005256877    0.001642248   -0.000110390
      6        1          -0.005046315    0.001664273   -0.000139032
      7        1          -0.003492949   -0.006453325   -0.000116575
      8        6           0.002693758    0.011103893    0.000239569
      9        8           0.002469060   -0.002736844    0.000107827
     10        8          -0.002849143   -0.000859971   -0.000135389
     11        1           0.016505366    0.003971288    0.000520517
     12        1           0.003985299   -0.005232032    0.000092934
 -------------------------------------------------------------------
 Cartesian Forces:  Max     0.017382169 RMS     0.005527655

 GradGradGradGradGradGradGradGradGradGradGradGradGradGradGradGradGradGrad
 Berny optimization.
 Using GEDIIS/GDIIS optimizer.
 FormGI is forming the generalized inverse of G from B-inverse, IUseBI=4.
 Internal  Forces:  Max     0.016974125 RMS     0.003119182
 Search for a local minimum.
 Step number   3 out of a maximum of   65
 All quantities printed in internal units (Hartrees-Bohrs-Radians)
 Mixed Optimization -- RFO/linear search
 Update second derivatives using D2CorX and points    1    2    3
 DE= -6.64D-03 DEPred=-7.07D-03 R= 9.38D-01
 TightC=F SS=  1.41D+00  RLast= 2.73D-01 DXNew= 8.4853D-01 8.1858D-01
 Trust test= 9.38D-01 RLast= 2.73D-01 DXMaxT set to 8.19D-01
 ITU=  1  1  0
 Use linear search instead of GDIIS.
     Eigenvalues ---    0.00230   0.01545   0.02342   0.02391   0.02519
     Eigenvalues ---    0.02566   0.02636   0.02665   0.02838   0.05083
     Eigenvalues ---    0.12659   0.15108   0.16000   0.16001   0.16144
     Eigenvalues ---    0.21998   0.24955   0.24990   0.26686   0.29617
     Eigenvalues ---    0.29751   0.30446   0.42227   0.46104   0.47406
     Eigenvalues ---    0.54017   0.56044   0.64943   1.21696   1.29669
 RFO step:  Lambda=-2.18071027D-03 EMin= 2.29999715D-03
 Quartic linear search produced a step of -0.07521.
 Iteration  1 RMS(Cart)=  0.03157189 RMS(Int)=  0.00005035
 Iteration  2 RMS(Cart)=  0.00005572 RMS(Int)=  0.00000235
 Iteration  3 RMS(Cart)=  0.00000000 RMS(Int)=  0.00000235
 Variable       Old X    -DE/DX   Delta X   Delta X   Delta X     New X
                                 (Linear)    (Quad)   (Total)
    R1        2.52841   0.00095  -0.00074   0.00318   0.00244   2.53086
    R2        2.54445   0.00210  -0.00270   0.00973   0.00703   2.55148
    R3        1.88122   0.01697   0.00858   0.02714   0.03571   1.91694
    R4        2.52121  -0.00196   0.00113  -0.00611  -0.00497   2.51624
    R5        4.46904   0.00785  -0.01308   0.15625   0.14317   4.61220
    R6        2.66144   0.00128  -0.00129   0.00546   0.00416   2.66560
    R7        2.03075   0.00518   0.00436   0.00522   0.00958   2.04033
    R8        2.61576  -0.00167  -0.00230   0.00250   0.00020   2.61596
    R9        2.02192   0.00706   0.00548   0.00874   0.01422   2.03613
   R10        2.02458   0.00658   0.00510   0.00800   0.01310   2.03768
   R11        2.20820  -0.00329   0.00021  -0.00294  -0.00273   2.20548
   R12        2.20894  -0.00265  -0.00074  -0.00016  -0.00090   2.20804
    A1        1.96307   0.00117  -0.00118   0.00959   0.00841   1.97147
    A2        2.08459  -0.00002  -0.00149   0.00307   0.00158   2.08617
    A3        2.23553  -0.00116   0.00267  -0.01266  -0.00999   2.22554
    A4        1.84066  -0.00189   0.00174  -0.01306  -0.01131   1.82936
    A5        2.09496   0.00060  -0.00058   0.00465   0.00407   2.09903
    A6        2.34734   0.00128  -0.00116   0.00840   0.00724   2.35458
    A7        1.93382   0.00189  -0.00308   0.01495   0.01186   1.94568
    A8        2.08125   0.00027  -0.00140   0.00615   0.00475   2.08600
    A9        2.26811  -0.00216   0.00449  -0.02109  -0.01661   2.25151
   A10        1.82468  -0.00020   0.00182  -0.00629  -0.00448   1.82020
   A11        2.21685   0.00212  -0.00473   0.02413   0.01940   2.23625
   A12        2.24165  -0.00192   0.00291  -0.01783  -0.01492   2.22674
   A13        1.86255  -0.00098   0.00071  -0.00518  -0.00448   1.85807
   A14        2.11974   0.00034  -0.00014   0.00158   0.00145   2.12119
   A15        2.30089   0.00064  -0.00057   0.00360   0.00303   2.30392
   A16        1.68020  -0.00143  -0.00029  -0.00756  -0.00785   1.67235
   A17        1.64835  -0.00079  -0.00083  -0.00369  -0.00453   1.64382
   A18        3.32854  -0.00223  -0.00112  -0.01125  -0.01237   3.31617
   A19        3.14140   0.00003   0.00003   0.00081   0.00084   3.14224
    D1        0.00066  -0.00002  -0.00009   0.00007  -0.00002   0.00064
    D2        3.12272   0.00001  -0.00010   0.00004  -0.00006   3.12265
    D3        3.14154  -0.00000  -0.00008   0.00047   0.00039  -3.14125
    D4       -0.01958   0.00002  -0.00009   0.00044   0.00035  -0.01924
    D5       -0.00055   0.00002   0.00008   0.00003   0.00011  -0.00044
    D6        3.14158   0.00001   0.00005  -0.00003   0.00002  -3.14159
    D7       -3.14136  -0.00000   0.00007  -0.00042  -0.00035   3.14148
    D8        0.00077  -0.00001   0.00004  -0.00048  -0.00044   0.00033
    D9       -0.00050   0.00001   0.00006  -0.00014  -0.00009  -0.00059
   D10        3.14127   0.00000   0.00005  -0.00024  -0.00019   3.14107
   D11       -3.11839   0.00000   0.00005   0.00003   0.00008  -3.11831
   D12        0.02338  -0.00000   0.00004  -0.00007  -0.00003   0.02335
   D13        3.14090   0.00004  -0.00042   0.00743   0.00701  -3.13527
   D14       -0.00050   0.00002  -0.00045   0.00662   0.00617   0.00568
   D15       -0.02709   0.00003  -0.00039   0.00708   0.00668  -0.02040
   D16        3.11470  -0.00000  -0.00042   0.00627   0.00584   3.12054
   D17        0.00019   0.00000  -0.00001   0.00016   0.00016   0.00034
   D18       -3.14117  -0.00001  -0.00000  -0.00016  -0.00017  -3.14133
   D19        3.14158   0.00001   0.00000   0.00028   0.00028  -3.14133
   D20        0.00022   0.00000   0.00001  -0.00005  -0.00005   0.00018
   D21        0.00021  -0.00001  -0.00004  -0.00011  -0.00016   0.00005
   D22        3.14119   0.00000  -0.00000  -0.00005  -0.00005   3.14114
   D23        3.14156  -0.00000  -0.00005   0.00023   0.00017  -3.14146
   D24       -0.00065   0.00001  -0.00001   0.00029   0.00028  -0.00037
         Item               Value     Threshold  Converged?
 Maximum Force            0.016974     0.000450     NO 
 RMS     Force            0.003119     0.000300     NO 
 Maximum Displacement     0.119291     0.001800     NO 
 RMS     Displacement     0.031570     0.001200     NO 
 Predicted change in Energy=-1.136474D-03
 GradGradGradGradGradGradGradGradGradGradGradGradGradGradGradGradGradGrad

                          Input orientation:                          
 ---------------------------------------------------------------------
 Center     Atomic      Atomic             Coordinates (Angstroms)
 Number     Number       Type             X           Y           Z
 ---------------------------------------------------------------------
      1          7           0       -0.392408   -0.371639    0.038164
      2          7           0       -1.334094    0.580290    0.011582
      3          6           0       -2.487950   -0.083199   -0.025634
      4          6           0       -2.281663   -1.478609   -0.023599
      5          6           0       -0.905284   -1.620465    0.018406
      6          1           0       -3.416964    0.466311   -0.052358
      7          1           0       -3.022437   -2.260640   -0.048796
      8          6           0       -0.703073    2.937035    0.078281
      9          8           0       -1.793185    3.352426    0.043648
     10          8           0        0.443750    2.717093    0.119366
     11          1           0        0.586139   -0.106147    0.069273
     12          1           0       -0.269831   -2.491455    0.035667
 ---------------------------------------------------------------------
                    Distance matrix (angstroms):
                    1          2          3          4          5
     1  N    0.000000
     2  N    1.339271   0.000000
     3  C    2.116262   1.331535   0.000000
     4  C    2.190544   2.266757   1.410576   0.000000
     5  C    1.350185   2.242152   2.206798   1.384308   0.000000
     6  H    3.139792   2.086966   1.079696   2.252210   3.266219
     7  H    3.239281   3.305304   2.242200   1.077476   2.212844
     8  C    3.323469   2.440673   3.509758   4.690441   4.562377
     9  O    3.978802   2.810077   3.505855   4.856133   5.051599
    10  O    3.200940   2.781776   4.056788   5.005220   4.543622
    11  H    1.014400   2.040053   3.075639   3.180655   2.126050
    12  H    2.123359   3.250977   3.274676   2.253184   1.078296
                    6          7          8          9         10
     6  H    0.000000
     7  H    2.755346   0.000000
     8  C    3.672431   5.693104   0.000000
     9  O    3.312935   5.746836   1.167087   0.000000
    10  O    4.472205   6.067995   1.168446   2.326641   0.000000
    11  H    4.045656   4.204474   3.305012   4.198043   2.827272
    12  H    4.319789   2.763558   5.445918   6.039174   5.257868
                   11         12
    11  H    0.000000
    12  H    2.534464   0.000000
 Stoichiometry    C4H4N2O2
 Framework group  C1[X(C4H4N2O2)]
 Deg. of freedom    30
 Full point group                 C1      NOp   1
 Largest Abelian subgroup         C1      NOp   1
 Largest concise Abelian subgroup C1      NOp   1
                         Standard orientation:                         
 ---------------------------------------------------------------------
 Center     Atomic      Atomic             Coordinates (Angstroms)
 Number     Number       Type             X           Y           Z
 ---------------------------------------------------------------------
      1          7           0       -0.955894   -0.979120   -0.008156
      2          7           0       -0.212589    0.134933   -0.013677
      3          6           0       -1.094368    1.132600   -0.003066
      4          6           0       -2.419872    0.650287    0.008636
      5          6           0       -2.282298   -0.727163    0.004822
      6          1           0       -0.742715    2.153424   -0.004324
      7          1           0       -3.334788    1.219311    0.018428
      8          6           0        2.223623   -0.011649    0.002849
      9          8           0        2.411477    1.140219    0.000860
     10          8           0        2.238702   -1.179990    0.006977
     11          1           0       -0.499208   -1.884885   -0.014031
     12          1           0       -3.007845   -1.524828    0.010621
 ---------------------------------------------------------------------
 Rotational constants (GHZ):           5.2829621           1.2215363           0.9921582
 Standard basis: 6-31+G(d,p) (6D, 7F)
 There are   172 symmetry adapted cartesian basis functions of A   symmetry.
 There are   172 symmetry adapted basis functions of A   symmetry.
   172 basis functions,   284 primitive gaussians,   172 cartesian basis functions
    29 alpha electrons       29 beta electrons
       nuclear repulsion energy       333.7773269597 Hartrees.
 NAtoms=   12 NActive=   12 NUniq=   12 SFac= 1.00D+00 NAtFMM=   60 NAOKFM=F Big=F
 Integral buffers will be    131072 words long.
 Raffenetti 2 integral format.
 Two-electron integral symmetry is turned on.
 ------------------------------------------------------------------------------
 Polarizable Continuum Model (PCM)
 =================================
 Model                : PCM.
 Atomic radii         : SMD-Coulomb.
 Polarization charges : Total charges.
 Charge compensation  : None.
 Solution method      : On-the-fly selection.
 Cavity type          : VdW (van der Waals Surface) (Alpha=1.000).
 Cavity algorithm     : GePol (No added spheres)
                        Default sphere list used, NSphG=   12.
                        Lebedev-Laikov grids with approx.  5.0 points / Ang**2.
                        Smoothing algorithm: York/Karplus (Gamma=1.0000).
                        Polarization charges: spherical gaussians, with
                                              point-specific exponents (IZeta= 3).
                        Self-potential: point-specific (ISelfS= 7).
                        Self-field    : sphere-specific E.n sum rule (ISelfD= 2).
 1st derivatives      : Analytical E(r).r(x)/FMM algorithm (CHGder, D1EAlg=3).
                        Cavity 1st derivative terms included.
 Solvent              : Water, Eps=  78.355300 Eps(inf)=   1.777849
 ------------------------------------------------------------------------------
 Spheres list:
 ISph  on   Nord     Re0    Alpha      Xe            Ye            Ze
    1   N      1    1.8900  1.000     -0.955894     -0.979120     -0.008156
    2   N      2    1.8900  1.000     -0.212589      0.134933     -0.013677
    3   C      3    1.8500  1.000     -1.094368      1.132600     -0.003066
    4   C      4    1.8500  1.000     -2.419872      0.650287      0.008636
    5   C      5    1.8500  1.000     -2.282298     -0.727163      0.004822
    6   H      6    1.2000  1.000     -0.742715      2.153424     -0.004324
    7   H      7    1.2000  1.000     -3.334788      1.219311      0.018428
    8   C      8    1.8500  1.000      2.223623     -0.011649      0.002849
    9   O      9    1.5200  1.000      2.411477      1.140219      0.000860
   10   O     10    1.5200  1.000      2.238702     -1.179990      0.006977
   11   H     11    1.2000  1.000     -0.499208     -1.884885     -0.014031
   12   H     12    1.2000  1.000     -3.007845     -1.524828      0.010621
 ------------------------------------------------------------------------------
 ------------------------------------------------------------------------------
 Atomic radii for non-electrostatic terms: SMD-CDS.
 ------------------------------------------------------------------------------
 Nuclear repulsion after PCM non-electrostatic terms =      333.7884303001 Hartrees.
 One-electron integrals computed using PRISM.
 NBasis=   172 RedAO= T EigKep=  5.13D-05  NBF=   172
 NBsUse=   172 1.00D-06 EigRej= -1.00D+00 NBFU=   172
 Initial guess from the checkpoint file:  "/home/Tinker/g16/scratch/Gau-1641640.chk"
 B after Tr=     0.000000    0.000000    0.000000
         Rot=    1.000000   -0.000012   -0.000023   -0.000540 Ang=  -0.06 deg.
 ExpMin= 4.38D-02 ExpMax= 5.48D+03 ExpMxC= 8.25D+02 IAcc=3 IRadAn=         5 AccDes= 0.00D+00
 Harris functional with IExCor= 1009 and IRadAn=       5 diagonalized for initial guess.
 HarFok:  IExCor= 1009 AccDes= 0.00D+00 IRadAn=         5 IDoV= 1 UseB2=F ITyADJ=14
 ICtDFT=  3500011 ScaDFX=  1.000000  1.000000  1.000000  1.000000
 FoFCou: FMM=F IPFlag=           0 FMFlag=      100000 FMFlg1=           0
         NFxFlg=           0 DoJE=T BraDBF=F KetDBF=T FulRan=T
         wScrn=  0.000000 ICntrl=       500 IOpCl=  0 I1Cent=   200000004 NGrid=           0
         NMat0=    1 NMatS0=      1 NMatT0=    0 NMatD0=    1 NMtDS0=    0 NMtDT0=    0
 Petite list used in FoFCou.
 Keep R1 ints in memory in canonical form, NReq=134731469.
 Requested convergence on RMS density matrix=1.00D-08 within 128 cycles.
 Requested convergence on MAX density matrix=1.00D-06.
 Requested convergence on             energy=1.00D-06.
 No special actions if energy rises.
 Inv3:  Mode=1 IEnd=     3844272.
 Iteration    1 A*A^-1 deviation from unit magnitude is 3.11D-15 for   1110.
 Iteration    1 A*A^-1 deviation from orthogonality  is 1.70D-15 for   1030    114.
 Iteration    1 A^-1*A deviation from unit magnitude is 2.89D-15 for   1110.
 Iteration    1 A^-1*A deviation from orthogonality  is 5.29D-14 for   1041   1008.
 Error on total polarization charges =  0.03854
 SCF Done:  E(RM062X) =  -414.645507737     A.U. after   11 cycles
            NFock= 11  Conv=0.70D-08     -V/T= 2.0084
 SMD-CDS (non-electrostatic) energy       (kcal/mol) =       6.97
 (included in total energy above)
 D1PCM: PCM CHGder 1st derivatives, ID1Alg=3 FixD1E=F DoIter=F DoCFld=F I1PDM=0.
 Calling FoFJK, ICntrl=      2127 FMM=F ISym2X=0 I1Cent= 0 IOpClX= 0 NMat=1 NMatS=1 NMatT=0.
 ***** Axes restored to original set *****
 -------------------------------------------------------------------
 Center     Atomic                   Forces (Hartrees/Bohr)
 Number     Number              X              Y              Z
 -------------------------------------------------------------------
      1        7           0.003017777   -0.000824110    0.000040065
      2        7          -0.002072161   -0.006859637   -0.000099700
      3        6          -0.000465543   -0.000724564   -0.000058579
      4        6           0.002462336    0.002624410    0.000086447
      5        6          -0.002345637    0.002447704   -0.000034755
      6        1          -0.001566176    0.000549076   -0.000052344
      7        1          -0.000830527   -0.001043009   -0.000024593
      8        6           0.004786055    0.011887194    0.000473719
      9        8           0.001235908   -0.004188999   -0.000062643
     10        8          -0.004473121   -0.002642657   -0.000271775
     11        1          -0.000842515   -0.000391214   -0.000020328
     12        1           0.001093604   -0.000834194    0.000024487
 -------------------------------------------------------------------
 Cartesian Forces:  Max     0.011887194 RMS     0.002906967

 GradGradGradGradGradGradGradGradGradGradGradGradGradGradGradGradGradGrad
 Berny optimization.
 Using GEDIIS/GDIIS optimizer.
 FormGI is forming the generalized inverse of G from B-inverse, IUseBI=4.
 Internal  Forces:  Max     0.005285214 RMS     0.001419355
 Search for a local minimum.
 Step number   4 out of a maximum of   65
 All quantities printed in internal units (Hartrees-Bohrs-Radians)
 Mixed Optimization -- RFO/linear search
 Update second derivatives using D2CorX and points    2    3    4
 DE= -1.52D-03 DEPred=-1.14D-03 R= 1.34D+00
 TightC=F SS=  1.41D+00  RLast= 1.56D-01 DXNew= 1.3767D+00 4.6675D-01
 Trust test= 1.34D+00 RLast= 1.56D-01 DXMaxT set to 8.19D-01
 ITU=  1  1  1  0
 Use linear search instead of GDIIS.
[...]
   D22       -3.14144  -0.00000   0.00000  -0.00015  -0.00015   3.14159
   D23        3.14148   0.00000   0.00000   0.00011   0.00011  -3.14159
   D24        0.00017  -0.00000   0.00000  -0.00017  -0.00017   0.00000
         Item               Value     Threshold  Converged?
 Maximum Force            0.000034     0.000450     YES
 RMS     Force            0.000011     0.000300     YES
 Maximum Displacement     0.001790     0.001800     YES
 RMS     Displacement     0.000438     0.001200     YES
 Predicted change in Energy=-4.433369D-08
 Optimization completed.
    -- Stationary point found.
                           ----------------------------
                           !   Optimized Parameters   !
                           ! (Angstroms and Degrees)  !
 --------------------------                            --------------------------
 ! Name  Definition              Value          Derivative Info.                !
 --------------------------------------------------------------------------------
 ! R1    R(1,2)                  1.3415         -DE/DX =    0.0                 !
 ! R2    R(1,5)                  1.3492         -DE/DX =    0.0                 !
 ! R3    R(1,11)                 1.0129         -DE/DX =    0.0                 !
 ! R4    R(2,3)                  1.3328         -DE/DX =    0.0                 !
 ! R5    R(2,8)                  2.7771         -DE/DX =    0.0                 !
 ! R6    R(3,4)                  1.4097         -DE/DX =    0.0                 !
 ! R7    R(3,6)                  1.0814         -DE/DX =    0.0                 !
 ! R8    R(4,5)                  1.3824         -DE/DX =    0.0                 !
 ! R9    R(4,7)                  1.0794         -DE/DX =    0.0                 !
 ! R10   R(5,12)                 1.08           -DE/DX =    0.0                 !
 ! R11   R(8,9)                  1.1628         -DE/DX =    0.0                 !
 ! R12   R(8,10)                 1.1644         -DE/DX =    0.0                 !
 ! A1    A(2,1,5)              112.9547         -DE/DX =    0.0                 !
 ! A2    A(2,1,11)             119.4637         -DE/DX =    0.0                 !
 ! A3    A(5,1,11)             127.5816         -DE/DX =    0.0                 !
 ! A4    A(1,2,3)              104.6793         -DE/DX =    0.0                 !
 ! A5    A(1,2,8)              102.5951         -DE/DX =    0.0                 !
 ! A6    A(3,2,8)              152.7256         -DE/DX =    0.0                 !
 ! A7    A(2,3,4)              111.4778         -DE/DX =    0.0                 !
 ! A8    A(2,3,6)              119.792          -DE/DX =    0.0                 !
 ! A9    A(4,3,6)              128.7302         -DE/DX =    0.0                 !
 ! A10   A(3,4,5)              104.3804         -DE/DX =    0.0                 !
 ! A11   A(3,4,7)              128.1833         -DE/DX =    0.0                 !
 ! A12   A(5,4,7)              127.4362         -DE/DX =    0.0                 !
 ! A13   A(1,5,4)              106.5078         -DE/DX =    0.0                 !
 ! A14   A(1,5,12)             121.3741         -DE/DX =    0.0                 !
 ! A15   A(4,5,12)             132.1181         -DE/DX =    0.0                 !
 ! A16   A(2,8,9)               96.602          -DE/DX =    0.0                 !
 ! A17   A(2,8,10)              86.0525         -DE/DX =    0.0                 !
 ! A18   L(9,8,10,2,-1)        182.6544         -DE/DX =    0.0                 !
 ! A19   L(9,8,10,2,-2)        180.0029         -DE/DX =    0.0                 !
 ! D1    D(5,1,2,3)             -0.0125         -DE/DX =    0.0                 !
 ! D2    D(5,1,2,8)            179.9458         -DE/DX =    0.0                 !
 ! D3    D(11,1,2,3)           180.0676         -DE/DX =    0.0                 !
 ! D4    D(11,1,2,8)             0.026          -DE/DX =    0.0                 !
 ! D5    D(2,1,5,4)              0.0126         -DE/DX =    0.0                 !
 ! D6    D(2,1,5,12)          -180.0012         -DE/DX =    0.0                 !
 ! D7    D(11,1,5,4)          -180.0754         -DE/DX =    0.0                 !
 ! D8    D(11,1,5,12)           -0.0892         -DE/DX =    0.0                 !
 ! D9    D(1,2,3,4)              0.0075         -DE/DX =    0.0                 !
 ! D10   D(1,2,3,6)           -179.988          -DE/DX =    0.0                 !
 ! D11   D(8,2,3,4)           -179.9038         -DE/DX =    0.0                 !
 ! D12   D(8,2,3,6)              0.1008         -DE/DX =    0.0                 !
 ! D13   D(1,2,8,9)           -180.02           -DE/DX =    0.0                 !
 ! D14   D(1,2,8,10)            -0.0229         -DE/DX =    0.0                 !
 ! D15   D(3,2,8,9)             -0.1079         -DE/DX =    0.0                 !
 ! D16   D(3,2,8,10)          -180.1109         -DE/DX =    0.0                 !
 ! D17   D(2,3,4,5)             -0.0002         -DE/DX =    0.0                 !
 ! D18   D(2,3,4,7)            179.999          -DE/DX =    0.0                 !
 ! D19   D(6,3,4,5)            179.9947         -DE/DX =    0.0                 !
 ! D20   D(6,3,4,7)             -0.0061         -DE/DX =    0.0                 !
 ! D21   D(3,4,5,1)             -0.0071         -DE/DX =    0.0                 !
 ! D22   D(3,4,5,12)           180.0088         -DE/DX =    0.0                 !
 ! D23   D(7,4,5,1)           -180.0064         -DE/DX =    0.0                 !
 ! D24   D(7,4,5,12)             0.0095         -DE/DX =    0.0                 !
 --------------------------------------------------------------------------------
 GradGradGradGradGradGradGradGradGradGradGradGradGradGradGradGradGradGrad


 ----------------------------------------------------------------------

 Electric dipole moment (input orientation):
 (Debye = 10**-18 statcoulomb cm , SI units = C m)
                  (au)            (Debye)         (10**-30 SI)
   Tot        0.134837D+01      0.342721D+01      0.114319D+02
   x          0.797311D+00      0.202656D+01      0.675988D+01
   y         -0.108723D+01     -0.276345D+01     -0.921789D+01
   z          0.182613D-01      0.464155D-01      0.154826D+00

 Dipole polarizability, Alpha (input orientation).
 (esu units = cm**3 , SI units = C**2 m**2 J**-1)
 Alpha(0;0):
               (au)            (10**-24 esu)      (10**-40 SI)
   iso        0.823726D+02      0.122064D+02      0.135814D+02
   aniso      0.480024D+02      0.711322D+01      0.791452D+01
   xx         0.101723D+03      0.150737D+02      0.167718D+02
   yx        -0.963761D+01     -0.142815D+01     -0.158903D+01
   yy         0.924903D+02      0.137056D+02      0.152496D+02
   zx         0.162159D+01      0.240295D+00      0.267364D+00
   zy         0.277436D-01      0.411118D-02      0.457431D-02
   zz         0.529050D+02      0.783972D+01      0.872286D+01

 ----------------------------------------------------------------------

 Dipole orientation:
     7         -0.95514047         -0.59417832         -0.22006378
     7         -1.50951084         -1.02845748         -2.65536547
     6         -3.48867599         -2.58477361         -2.59167607
     6         -4.20525209         -3.14950990         -0.08888729
     6         -2.51068491         -1.81777678          1.38734671
     1         -4.32218503         -3.23948456         -4.33894981
     1         -5.72873115         -4.34775978          0.54667202
     6          2.10511345          1.82025874         -5.17746846
     8          1.45456876          1.30890644         -7.21306890
     8          2.82992768          2.39027973         -3.17964154
     1          0.50790108          0.55845827          0.22143914
     1         -2.29483157         -1.64936958          3.40985940

 Electric dipole moment (dipole orientation):
 (Debye = 10**-18 statcoulomb cm , SI units = C m)
                  (au)            (Debye)         (10**-30 SI)
   Tot        0.134837D+01      0.342721D+01      0.114319D+02
   x          0.000000D+00      0.000000D+00      0.000000D+00
   y          0.000000D+00      0.000000D+00      0.000000D+00
   z          0.134837D+01      0.342721D+01      0.114319D+02

 Dipole polarizability, Alpha (dipole orientation).
 (esu units = cm**3 , SI units = C**2 m**2 J**-1)
 Alpha(0;0):
               (au)            (10**-24 esu)      (10**-40 SI)
   iso        0.823726D+02      0.122064D+02      0.135814D+02
   aniso      0.480024D+02      0.711322D+01      0.791452D+01
   xx         0.753993D+02      0.111730D+02      0.124317D+02
   yx         0.177327D+02      0.262772D+01      0.292373D+01
   yy         0.667918D+02      0.989752D+01      0.110125D+02
   zx         0.576298D+01      0.853986D+00      0.950188D+00
   zy         0.451392D+01      0.668894D+00      0.744245D+00
   zz         0.104927D+03      0.155485D+02      0.173001D+02

 ----------------------------------------------------------------------
 Unable to Open any file for archive entry.
 1\1\GINC-XIELAB72C\Freq\RM062X\6-31+G(d,p)\C4H4N2O2\TINKER\27-Oct-2023
 \0\\#N Geom=AllCheck Guess=TCheck SCRF=Check GenChk RM062X/6-31+G(d,p)
  Freq\\Title Card Required\\0,1\N,-0.5478447206,-0.2565999101,0.043766
 5036\N,-1.6101405663,0.5621225429,0.0144790708\C,-2.6636557392,-0.2530
 090524,-0.0298271453\C,-2.2694707217,-1.6064491002,-0.0286332606\C,-0.
 8886519232,-1.5618425702,0.0199356532\H,-3.6622892832,0.1608300307,-0.
 0608942185\H,-2.896955631,-2.4842213144,-0.0586467593\C,-0.4372786392,
 3.0785580946,0.0808679953\O,-1.4270261346,3.6881682301,0.0516527626\O,
 0.58099729,2.5146847567,0.1116061287\H,0.3843605326,0.1379018319,0.080
 9478711\H,-0.1390444636,-2.3391435396,0.0387453984\\Version=ES64L-G16R
 evC.01\State=1-A\HF=-414.647997\RMSD=2.270e-09\RMSF=2.021e-05\ZeroPoin
 t=0.0848205\Thermal=0.0926175\ETot=-414.5553795\HTot=-414.5544353\GTot
 =-414.5983667\Dipole=0.797311,-1.0872262,0.0182613\DipoleDeriv=-0.9433
 344,-0.390218,-0.027347,-0.3538915,-0.0264471,-0.0102348,-0.0261594,-0
 .0110386,-0.2550409,0.0521972,-0.0928993,0.0115464,-0.1501641,-1.00001
 03,-0.0115609,0.0111349,-0.0099014,-0.3146149,0.104137,0.018274,0.0081
 966,-0.2257391,0.5443023,-0.0015875,0.0058174,0.0067627,-0.1223572,-0.
 3774334,0.0990971,-0.0001193,0.1415816,-0.2208821,0.0060412,0.000134,0
 .0046266,-0.3455867,0.4879693,0.1899511,0.0220255,0.4278357,0.0598494,
 0.0162344,0.0238724,0.0080868,-0.0977062,0.0197277,0.0480995,-0.006383
 1,0.0811218,0.0867082,0.0016407,-0.0061003,0.0005261,0.2153393,0.11700
 69,-0.061972,-0.0055347,-0.0696397,0.0459943,-0.004416,-0.0055869,-0.0
 041638,0.2590603,2.9739517,-1.2136879,0.0686245,-1.165365,1.7968007,-0
 .0309234,0.0691102,-0.0325419,0.7130783,-1.433758,0.6845387,-0.0315299
 ,0.6380112,-0.9054719,0.0173898,-0.0319419,0.0189844,-0.3604708,-1.545
 797,0.5726137,-0.0364992,0.5992936,-0.8436315,0.0166387,-0.0362682,0.0
 156619,-0.3627608,0.4531092,0.1009425,0.0024384,0.047886,0.3473379,0.0
 010873,0.0014614,0.0028053,0.4113167,0.0922238,0.0452605,-0.0054181,0.
 0290695,0.1154501,-0.0003096,-0.0054738,0.000192,0.259743\Polar=101.72
 25307,-9.6376121,92.4902773,1.6215919,0.0277436,52.9050303\Quadrupole=
 1.6515005,1.7538594,-3.4053599,0.3981027,0.1798644,0.0629659\PG=C01 [X
 (C4H4N2O2)]\NImag=0\\0.93994771,0.15791437,0.74300542,0.03121493,0.011
 68337,0.10169503,-0.22300695,0.13671837,-0.00422210,0.57024626,0.06482
 220,-0.18972746,0.00110926,0.05368484,0.56034850,-0.00481025,0.0035592
 2,-0.06795922,0.01662055,0.00610372,0.10910009,-0.13267416,0.00343289,
 -0.00502372,-0.28069676,-0.12860349,-0.00836857,0.87837218,-0.01977131
 ,-0.02073641,-0.00094510,-0.15735901,-0.22200378,-0.00686310,-0.076696
 58,0.64802754,-0.00524693,-0.00017997,0.01263341,-0.00863400,-0.005862
 36,-0.07541186,0.02485011,0.00197206,0.14687502,-0.06204297,-0.0847599
 4,-0.00334679,0.01560285,0.00520580,-0.00013810,-0.13456230,0.04021484
 ,-0.00196191,0.72521239,-0.01415960,-0.02168209,-0.00085048,-0.0706839
 8,-0.06929912,-0.00329520,0.07674898,-0.29626704,0.00056353,0.16215183
 ,0.76302657,-0.00272802,-0.00326968,0.01251709,-0.00082585,-0.00065634
 ,0.02069566,-0.00162099,-0.00072385,-0.06790000,0.02260423,0.01162214,
 0.12088074,-0.13134472,-0.05896083,-0.00307486,-0.03729848,0.00840172,
 -0.00185418,-0.02357674,0.09061376,-0.00032915,-0.38496459,-0.02317220
 ,-0.01129767,0.79445748,-0.06015913,-0.35171201,-0.00483368,0.03849885
 ,-0.09222948,0.00033750,0.02216465,0.01192582,0.00079263,0.00898508,-0
 .11555958,-0.00013192,-0.14750267,0.76039740,-0.00304245,-0.00472687,-
 0.06101324,-0.00156728,-0.00073416,0.01818230,-0.00097092,0.00316252,0
 .01008844,-0.01101166,-0.00124768,-0.06759163,0.02169026,0.00069956,0.
 13396157,-0.00299000,-0.00353404,-0.00039407,-0.01849184,0.01046687,-0
 .00030776,-0.31296871,0.10839652,-0.00877341,0.00227582,-0.00183687,-0
 .00000434,0.00022142,-0.00054537,-0.00016510,0.33239386,-0.00633033,-0
 .00158669,-0.00030444,-0.02044886,0.01258190,-0.00053298,0.11747644,-0
 .10948161,0.00339803,0.02271857,0.00078884,0.00078375,0.00115848,-0.00
 645118,-0.00006439,-0.11436795,0.10155193,-0.00041589,-0.00020086,0.00
 722492,-0.00059344,0.00055223,-0.00686932,-0.00869452,0.00307988,-0.03
 337338,0.00022717,-0.00007689,0.00191427,-0.00015162,-0.00012767,0.004
 79665,0.00966152,-0.00329332,0.02583428,-0.00638699,-0.00032618,-0.000
 41423,0.00007687,0.00439674,-0.00018579,0.01184059,0.00844724,0.000577
 40,-0.16246552,-0.14805396,-0.00609465,-0.00454762,-0.02304491,-0.0003
 2432,-0.00029825,-0.00087411,0.00005406,0.16058430,0.00296880,0.000300
 62,0.00005713,0.00031733,-0.00544573,-0.00010000,-0.01760506,-0.007579
 65,-0.00066199,-0.14982729,-0.26467269,-0.00743074,0.00446548,0.007388
 01,0.00023681,0.00043839,0.00051666,0.00003954,0.15992930,0.26918694,-
 0.00037845,-0.00006268,0.00530168,-0.00022724,0.00004352,0.00656561,0.
 00033663,0.00024890,-0.00244540,-0.00610984,-0.00736814,-0.02732120,-0
 .00006943,-0.00072415,-0.00137157,0.00006658,-0.00000655,-0.00208647,0
 .00630836,0.00786985,0.02249990,0.00096394,0.00076007,0.00004897,-0.00
 170013,0.00081872,-0.00000311,-0.00132503,-0.00076550,-0.00004577,-0.0
 0098935,0.00015019,-0.00003851,-0.00054143,0.00237108,-0.00000084,-0.0
 0007221,-0.00003684,-0.00000006,-0.00012696,0.00005990,-0.00000488,1.4
 2394330,0.00110248,-0.00230688,0.00001457,0.00458828,-0.00139630,0.000
 16239,-0.00288495,0.00109112,-0.00008696,0.00052307,0.00205751,0.00003
 513,0.00022938,0.00106969,0.00001725,0.00012324,0.00004988,0.00000584,
 -0.00009453,0.00035243,-0.00000059,-0.75841722,0.57535656,0.00004960,0
 .00000527,-0.00012709,0.00003317,0.00002728,-0.00137847,-0.00006800,-0
 .00001351,-0.00021941,-0.00003492,0.00002414,0.00015190,-0.00001943,0.
 00009401,0.00006355,0.00000144,-0.00000010,-0.00007962,-0.00000676,0.0
 0000529,0.00003656,0.03804594,-0.02277260,0.14692274,-0.00042347,-0.00
 022511,-0.00002412,0.00098229,-0.00226304,-0.00000765,0.00005468,0.000
 50899,0.00000650,0.00042134,0.00016844,0.00001769,0.00025966,-0.000733
 39,0.00000402,-0.00001184,0.00006086,-0.00000072,0.00003153,0.00001621
 ,0.00000134,-0.69995887,0.38591979,-0.01853789,0.78716952,-0.00062506,
 -0.00121363,-0.00003379,-0.00010543,-0.00329843,-0.00004243,0.00119455
 ,-0.00043863,0.00003706,-0.00017614,-0.00084958,-0.00001334,0.00019432
 ,-0.00058550,0.00000144,-0.00012989,0.00002878,-0.00000463,0.00003875,
 -0.00013526,0.00000023,0.38578816,-0.30216053,0.01146309,-0.45482704,0
 .31753491,-0.00002650,-0.00002116,0.00015046,0.00001373,-0.00011803,0.
 00056436,0.00001332,0.00001340,0.00001230,0.00001466,-0.00000199,-0.00
 004220,0.00001220,-0.00003160,-0.00002943,-0.00000258,0.00000220,0.000
 02573,0.00000173,-0.00000070,-0.00000613,-0.01853724,0.01146652,-0.072
 70813,0.02225830,-0.01341206,0.03646664,-0.00049133,0.00065812,-0.0000
 1951,-0.00486847,-0.00213494,-0.00021421,0.00148608,-0.00039288,0.0000
 3773,0.00012310,-0.00053825,0.00000010,0.00012844,-0.00109515,-0.00000
 845,0.00000273,0.00005816,-0.00000004,0.00010872,-0.00013151,0.0000055
 3,-0.71999956,0.36730026,-0.01947161,-0.08878415,0.06919287,-0.0037502
 5,0.81302091,-0.00076296,-0.00119560,-0.00004183,-0.00450234,-0.002817
 71,-0.00019292,0.00094402,-0.00098254,0.00001985,-0.00081947,-0.001064
 11,-0.00003807,-0.00058888,0.00063881,-0.00001689,-0.00008214,0.000011
 15,-0.00000306,-0.00003386,-0.00015171,-0.00000128,0.36382891,-0.27150
 065,0.01099916,0.07365372,-0.00961923,0.00217769,-0.43034394,0.2854103
 9,-0.00003263,0.00000682,0.00022674,-0.00023773,-0.00010789,0.00055948
 ,0.00005317,-0.00002652,0.00026299,-0.00000318,-0.00002916,-0.00001745
 ,-0.00000460,-0.00003360,0.00009629,-0.00000127,0.00000203,0.00001687,
 0.00000634,-0.00000543,-0.00007953,-0.01951026,0.01112616,-0.07268274,
 -0.00370330,0.00201708,0.03553424,0.02345742,-0.01287267,0.03648153,-0
 .39533492,-0.14063515,-0.01519882,-0.02078717,-0.01079408,-0.00045876,
 -0.00046231,0.00703191,-0.00010758,0.00460230,0.00026439,0.00002266,0.
 00277343,-0.00050837,0.00029670,-0.00026330,-0.00069516,-0.00008350,0.
 00057166,-0.00004220,-0.00004614,-0.00027461,0.00155026,0.00000649,0.0
 0027996,-0.00048670,0.00000302,-0.00069956,-0.00132121,-0.00002383,0.4
 0984015,-0.14985002,-0.13679362,-0.00658703,0.02189387,0.01671487,0.00
 104811,0.00696564,-0.00333453,0.00016785,-0.00049132,-0.00639669,-0.00
 011192,-0.02568428,0.00121435,-0.00085677,0.00097979,0.00115699,0.0000
 2375,-0.00109039,0.00060584,-0.00004771,0.00531574,-0.00279054,0.00016
 210,-0.00225172,0.00087038,-0.00007219,-0.00251223,0.00130834,-0.00007
 444,0.14596440,0.12688721,-0.01536753,-0.00629393,-0.00845943,-0.00010
 256,-0.00011907,-0.01076750,-0.00010526,0.00015274,0.00434622,0.000007
 86,-0.00006836,0.00384813,0.00009647,0.00007504,-0.00566894,-0.0000668
 4,-0.00003067,0.00196243,-0.00005218,-0.00001282,0.00183122,0.00004332
 ,0.00002894,-0.00002240,-0.00001415,-0.00000970,0.00005860,-0.00003579
 ,-0.00003076,-0.00038232,0.01552082,0.00629377,0.01548249,0.01378387,-
 0.01104258,0.00045432,-0.00005848,-0.00400136,-0.00027217,-0.00548752,
 -0.00022800,-0.00037298,-0.00321307,0.01896102,-0.00003465,-0.21556685
 ,0.16156933,-0.00489996,0.00020230,0.00128073,-0.00000296,0.00061167,-
 0.00058935,0.00011754,0.00008089,0.00005992,0.00000198,-0.00002064,-0.
 00005839,-0.00000039,-0.00002691,0.00002814,-0.00000012,-0.00024563,0.
 00076052,0.00007585,0.20994037,0.02485056,-0.01635164,0.00073202,-0.00
 260193,-0.00342724,-0.00018431,-0.00313710,-0.00022028,-0.00015974,-0.
 00372503,0.00991798,-0.00006515,0.15084571,-0.21609632,0.00352917,0.00
 009143,0.00083335,0.00000519,0.00070590,-0.00036544,0.00004860,0.00012
 678,0.00017771,0.00000587,-0.00002772,-0.00013328,-0.00000207,-0.00006
 052,-0.00003714,-0.00000238,-0.00032811,0.00055740,0.00001482,-0.16673
 998,0.22514491,0.00078412,-0.00049954,-0.00219035,-0.00025724,-0.00023
 816,0.00671885,-0.00040125,-0.00005743,0.00513167,-0.00024751,0.000728
 08,0.00286468,-0.00499798,0.00388390,-0.03151399,-0.00001417,0.0000464
 3,0.00063364,0.00013004,0.00000305,-0.00292467,0.00000245,0.00000335,0
 .00004311,-0.00000002,-0.00000294,-0.00002645,-0.00000092,0.00000079,-
 0.00001611,0.00006894,0.00005448,-0.00222851,0.00493354,-0.00392203,0.
 02350813\\0.00002097,0.00004783,-0.00004267,0.00003827,-0.00000472,0.0
 0000401,-0.00005605,-0.00003505,0.00000438,0.00000774,-0.00000119,0.00
 000212,0.00000133,-0.00003929,0.00001621,0.00001414,0.00001252,-0.0000
 0262,0.00001413,-0.00000020,0.00000301,0.00000267,-0.00000097,-0.00000
 790,-0.00000447,-0.00000577,0.00000365,-0.00000908,0.00001286,0.000003
 93,-0.00002527,0.00000812,0.00002436,-0.00000439,0.00000586,-0.0000084
 8\\\@
 The archive entry for this job was punched.


 THE FIRST MORNING OF CREATION WROTE WHAT THE LAST DAWN OF
 RECKONING SHALL READ. -- OMAR KHAYYAM
 Job cpu time:       0 days  0 hours 27 minutes 13.5 seconds.
 Elapsed time:       0 days  0 hours  1 minutes  9.4 seconds.
 File lengths (MBytes):  RWF=     67 Int=      0 D2E=      0 Chk=      7 Scr=      1
 Normal termination of Gaussian 16 at Fri Oct 27 05:13:49 2023.
