 Entering Gaussian System, Link 0=/opt/soft/g16/g16
 Initial command:
 /opt/soft/g16/l1.exe "/scratch/gongke2021/bizuo-TS/Gau-31684.inp" -scrdir="/scratch/gongke2021/bizuo-TS/"
 Entering Link 1 = /opt/soft/g16/l1.exe PID=     31685.
  
 Copyright (c) 1988,1990,1992,1993,1995,1998,2003,2009,2016,
            Gaussian, Inc.  All Rights Reserved.
  
 This is part of the Gaussian(R) 16 program.  It is based on
 the Gaussian(R) 09 system (copyright 2009, Gaussian, Inc.),
 the Gaussian(R) 03 system (copyright 2003, Gaussian, Inc.),
 the Gaussian(R) 98 system (copyright 1998, Gaussian, Inc.),
 the Gaussian(R) 94 system (copyright 1995, Gaussian, Inc.),
 the Gaussian 92(TM) system (copyright 1992, Gaussian, Inc.),
 the Gaussian 90(TM) system (copyright 1990, Gaussian, Inc.),
 the Gaussian 88(TM) system (copyright 1988, Gaussian, Inc.),
 the Gaussian 86(TM) system (copyright 1986, Carnegie Mellon
 University), and the Gaussian 82(TM) system (copyright 1983,
 Carnegie Mellon University). Gaussian is a federally registered
 trademark of Gaussian, Inc.
  
 This software contains proprietary and confidential information,
 including trade secrets, belonging to Gaussian, Inc.
  
 This software is provided under written license and may be
 used, copied, transmitted, or stored only in accord with that
 written license.
  
 The following legend is applicable only to US Government
 contracts under FAR:
  
                    RESTRICTED RIGHTS LEGEND
  
 Use, reproduction and disclosure by the US Government is
 subject to restrictions as set forth in subparagraphs (a)
 and (c) of the Commercial Computer Software - Restricted
 Rights clause in FAR 52.227-19.
  
 Gaussian, Inc.
 340 Quinnipiac St., Bldg. 40, Wallingford CT 06492
  
  
 ---------------------------------------------------------------
 Warning -- This program may not be used in any manner that
 competes with the business of Gaussian, Inc. or will provide
 assistance to any competitor of Gaussian, Inc.  The licensee
 of this program is prohibited from giving any competitor of
 Gaussian, Inc. access to this program.  By using this program,
 the user acknowledges that Gaussian, Inc. is engaged in the
 business of creating and licensing software in the field of
 computational chemistry and represents and warrants to the
 licensee that it is not a competitor of Gaussian, Inc. and that
 it will not use this program in any manner prohibited above.
 ---------------------------------------------------------------
  

 Cite this work as:
 Gaussian 16, Revision A.03,
 M. J. Frisch, G. W. Trucks, H. B. Schlegel, G. E. Scuseria, 
 M. A. Robb, J. R. Cheeseman, G. Scalmani, V. Barone, 
 G. A. Petersson, H. Nakatsuji, X. Li, M. Caricato, A. V. Marenich, 
 J. Bloino, B. G. Janesko, R. Gomperts, B. Mennucci, H. P. Hratchian, 
 J. V. Ortiz, A. F. Izmaylov, J. L. Sonnenberg, D. Williams-Young, 
 F. Ding, F. Lipparini, F. Egidi, J. Goings, B. Peng, A. Petrone, 
 T. Henderson, D. Ranasinghe, V. G. Zakrzewski, J. Gao, N. Rega, 
 G. Zheng, W. Liang, M. Hada, M. Ehara, K. Toyota, R. Fukuda, 
 J. Hasegawa, M. Ishida, T. Nakajima, Y. Honda, O. Kitao, H. Nakai, 
 T. Vreven, K. Throssell, J. A. Montgomery, Jr., J. E. Peralta, 
 F. Ogliaro, M. J. Bearpark, J. J. Heyd, E. N. Brothers, K. N. Kudin, 
 V. N. Staroverov, T. A. Keith, R. Kobayashi, J. Normand, 
 K. Raghavachari, A. P. Rendell, J. C. Burant, S. S. Iyengar, 
 J. Tomasi, M. Cossi, J. M. Millam, M. Klene, C. Adamo, R. Cammi, 
 J. W. Ochterski, R. L. Martin, K. Morokuma, O. Farkas, 
 J. B. Foresman, and D. J. Fox, Gaussian, Inc., Wallingford CT, 2016.
 
 ******************************************
 Gaussian 16:  ES64L-G16RevA.03 25-Dec-2016
                 5-Nov-2023 
 ******************************************
 %mem=10GB
 %nprocshared=24
 Will use up to   24 processors via shared memory.
 ----------------------------------------------------------------------
 # opt=(calcfc,ts,noeigentest) freq 6-31+g(d,p) scrf=(smd,solvent=water
 ) integral=grid=ultrafine m062x
 ----------------------------------------------------------------------
 1/5=1,10=4,11=1,18=20,26=6,38=1/1,3;
 2/9=110,12=2,17=6,18=5,40=1/2;
 3/5=1,6=6,7=111,11=2,25=1,30=1,70=32201,71=2,72=1,74=-55,75=-5,140=1/1,2,3;
 4//1;
 5/5=2,38=5,53=1/2;
 8/6=4,10=90,11=11/1;
 11/6=1,8=1,9=11,15=111,16=1/1,2,10;
 10/6=1,13=1/2;
 6/7=2,8=2,9=2,10=2,28=1/1;
 7/10=1,18=20,25=1/1,2,3,16;
 1/5=1,10=4,11=1,18=20,26=6/3(2);
 2/9=110/2;
 99//99;
 2/9=110/2;
 3/5=1,6=6,7=111,11=2,25=1,30=1,70=32205,71=1,72=1,74=-55,75=-5/1,2,3;
 4/5=5,16=3,69=1/1;
 5/5=2,38=5,53=1/2;
 7//1,2,3,16;
 1/5=1,11=1,18=20,26=6/3(-5);
 2/9=110/2;
 6/7=2,8=2,9=2,10=2,19=2,28=1/1;
 99/9=1/99;
 -------------------
 Title Card Required
 -------------------
 Symbolic Z-matrix:
 Charge = -1 Multiplicity = 2
 N                     0.39897   0.98954  -0.01079 
 N                     0.34857  -0.36247   0.00201 
 C                     1.60172  -0.88506   0.01036 
 C                     2.48948   0.16626   0.00413 
 C                     1.68184   1.32002  -0.00886 
 H                     1.75131  -1.95378   0.01865 
 H                     3.56716   0.11455   0.00728 
 C                    -0.89492  -1.13552  -0.00155 
 O                    -0.74061  -2.35705   0.01976 
 O                    -1.9703   -0.48042  -0.02717 
 H                    -0.80213   1.74681  -0.0178 
 H                     1.97018   2.36204  -0.0168 
 O                    -1.87499   1.98051  -0.07529 
 H                    -2.13154   0.97014  -0.02547 
 H                    -2.1693    2.43229   0.73282 
 
 Add virtual bond connecting atoms H11        and N1         Dist= 2.68D+00.
 Add virtual bond connecting atoms H14        and O10        Dist= 2.76D+00.

 GradGradGradGradGradGradGradGradGradGradGradGradGradGradGradGradGradGrad
 Berny optimization.
 Initialization pass.
                           ----------------------------
                           !    Initial Parameters    !
                           ! (Angstroms and Degrees)  !
 --------------------------                            --------------------------
 ! Name  Definition              Value          Derivative Info.                !
 --------------------------------------------------------------------------------
 ! R1    R(1,2)                  1.353          calculate D2E/DX2 analytically  !
 ! R2    R(1,5)                  1.3247         calculate D2E/DX2 analytically  !
 ! R3    R(1,11)                 1.4199         calculate D2E/DX2 analytically  !
 ! R4    R(2,3)                  1.3578         calculate D2E/DX2 analytically  !
 ! R5    R(2,8)                  1.4642         calculate D2E/DX2 analytically  !
 ! R6    R(3,4)                  1.376          calculate D2E/DX2 analytically  !
 ! R7    R(3,6)                  1.0792         calculate D2E/DX2 analytically  !
 ! R8    R(4,5)                  1.4084         calculate D2E/DX2 analytically  !
 ! R9    R(4,7)                  1.0789         calculate D2E/DX2 analytically  !
 ! R10   R(5,12)                 1.0812         calculate D2E/DX2 analytically  !
 ! R11   R(8,9)                  1.2314         calculate D2E/DX2 analytically  !
 ! R12   R(8,10)                 1.2595         calculate D2E/DX2 analytically  !
 ! R13   R(10,14)                1.4595         calculate D2E/DX2 analytically  !
 ! R14   R(11,13)                1.0995         calculate D2E/DX2 analytically  !
 ! R15   R(13,14)                1.0436         calculate D2E/DX2 analytically  !
 ! R16   R(13,15)                0.9715         calculate D2E/DX2 analytically  !
 ! A1    A(2,1,5)              106.5797         calculate D2E/DX2 analytically  !
 ! A2    A(2,1,11)             120.0967         calculate D2E/DX2 analytically  !
 ! A3    A(5,1,11)             133.323          calculate D2E/DX2 analytically  !
 ! A4    A(1,2,3)              110.5042         calculate D2E/DX2 analytically  !
 ! A5    A(1,2,8)              123.9998         calculate D2E/DX2 analytically  !
 ! A6    A(3,2,8)              125.4949         calculate D2E/DX2 analytically  !
 ! A7    A(2,3,4)              107.5394         calculate D2E/DX2 analytically  !
 ! A8    A(2,3,6)              120.6067         calculate D2E/DX2 analytically  !
 ! A9    A(4,3,6)              131.8538         calculate D2E/DX2 analytically  !
 ! A10   A(3,4,5)              104.8305         calculate D2E/DX2 analytically  !
 ! A11   A(3,4,7)              127.4298         calculate D2E/DX2 analytically  !
 ! A12   A(5,4,7)              127.7397         calculate D2E/DX2 analytically  !
 ! A13   A(1,5,4)              110.5462         calculate D2E/DX2 analytically  !
 ! A14   A(1,5,12)             119.9123         calculate D2E/DX2 analytically  !
 ! A15   A(4,5,12)             129.5415         calculate D2E/DX2 analytically  !
 ! A16   A(2,8,9)              114.6616         calculate D2E/DX2 analytically  !
 ! A17   A(2,8,10)             116.7798         calculate D2E/DX2 analytically  !
 ! A18   A(9,8,10)             128.5586         calculate D2E/DX2 analytically  !
 ! A19   A(8,10,14)            127.681          calculate D2E/DX2 analytically  !
 ! A20   A(1,11,13)            159.8845         calculate D2E/DX2 analytically  !
 ! A21   A(11,13,14)            91.8105         calculate D2E/DX2 analytically  !
 ! A22   A(11,13,15)           110.5459         calculate D2E/DX2 analytically  !
 ! A23   A(14,13,15)           109.6359         calculate D2E/DX2 analytically  !
 ! A24   A(10,14,13)           159.2275         calculate D2E/DX2 analytically  !
 ! D1    D(5,1,2,3)             -0.0747         calculate D2E/DX2 analytically  !
 ! D2    D(5,1,2,8)           -179.7151         calculate D2E/DX2 analytically  !
 ! D3    D(11,1,2,3)          -179.8394         calculate D2E/DX2 analytically  !
 ! D4    D(11,1,2,8)             0.5202         calculate D2E/DX2 analytically  !
 ! D5    D(2,1,5,4)              0.0572         calculate D2E/DX2 analytically  !
 ! D6    D(2,1,5,12)          -179.9433         calculate D2E/DX2 analytically  !
 ! D7    D(11,1,5,4)           179.7773         calculate D2E/DX2 analytically  !
 ! D8    D(11,1,5,12)           -0.2232         calculate D2E/DX2 analytically  !
 ! D9    D(2,1,11,13)           -8.4258         calculate D2E/DX2 analytically  !
 ! D10   D(5,1,11,13)          171.8842         calculate D2E/DX2 analytically  !
 ! D11   D(1,2,3,4)              0.0632         calculate D2E/DX2 analytically  !
 ! D12   D(1,2,3,6)           -179.8565         calculate D2E/DX2 analytically  !
 ! D13   D(8,2,3,4)            179.6971         calculate D2E/DX2 analytically  !
 ! D14   D(8,2,3,6)             -0.2227         calculate D2E/DX2 analytically  !
 ! D15   D(1,2,8,9)           -179.5924         calculate D2E/DX2 analytically  !
 ! D16   D(1,2,8,10)             0.4882         calculate D2E/DX2 analytically  !
 ! D17   D(3,2,8,9)              0.8213         calculate D2E/DX2 analytically  !
 ! D18   D(3,2,8,10)          -179.0981         calculate D2E/DX2 analytically  !
 ! D19   D(2,3,4,5)             -0.0263         calculate D2E/DX2 analytically  !
 ! D20   D(2,3,4,7)           -179.9577         calculate D2E/DX2 analytically  !
 ! D21   D(6,3,4,5)            179.881          calculate D2E/DX2 analytically  !
 ! D22   D(6,3,4,7)             -0.0504         calculate D2E/DX2 analytically  !
 ! D23   D(3,4,5,1)             -0.0195         calculate D2E/DX2 analytically  !
 ! D24   D(3,4,5,12)           179.9811         calculate D2E/DX2 analytically  !
 ! D25   D(7,4,5,1)            179.9116         calculate D2E/DX2 analytically  !
 ! D26   D(7,4,5,12)            -0.0878         calculate D2E/DX2 analytically  !
 ! D27   D(2,8,10,14)           -1.4175         calculate D2E/DX2 analytically  !
 ! D28   D(9,8,10,14)          178.6761         calculate D2E/DX2 analytically  !
 ! D29   D(8,10,14,13)           9.4383         calculate D2E/DX2 analytically  !
 ! D30   D(1,11,13,14)          10.2232         calculate D2E/DX2 analytically  !
 ! D31   D(1,11,13,15)         121.994          calculate D2E/DX2 analytically  !
 ! D32   D(11,13,14,10)        -10.5174         calculate D2E/DX2 analytically  !
 ! D33   D(15,13,14,10)       -123.1047         calculate D2E/DX2 analytically  !
 --------------------------------------------------------------------------------
 Trust Radius=3.00D-01 FncErr=5.00D-06 GrdErr=5.00D-06 EigMax=2.50D+02 EigMin=1.00D-04
 Number of steps in this run=     83 maximum allowed number of steps=    100.
 Search for a saddle point of order  1.
 GradGradGradGradGradGradGradGradGradGradGradGradGradGradGradGradGradGrad

                          Input orientation:                          
 ---------------------------------------------------------------------
 Center     Atomic      Atomic             Coordinates (Angstroms)
 Number     Number       Type             X           Y           Z
 ---------------------------------------------------------------------
      1          7           0        0.398974    0.989536   -0.010789
      2          7           0        0.348570   -0.362474    0.002005
      3          6           0        1.601718   -0.885060    0.010358
      4          6           0        2.489483    0.166261    0.004130
      5          6           0        1.681835    1.320022   -0.008858
      6          1           0        1.751311   -1.953776    0.018652
      7          1           0        3.567159    0.114548    0.007283
      8          6           0       -0.894923   -1.135524   -0.001551
      9          8           0       -0.740609   -2.357045    0.019758
     10          8           0       -1.970299   -0.480422   -0.027174
     11          1           0       -0.802128    1.746806   -0.017803
     12          1           0        1.970181    2.362042   -0.016798
     13          8           0       -1.874988    1.980509   -0.075292
     14          1           0       -2.131540    0.970141   -0.025471
     15          1           0       -2.169299    2.432289    0.732821
 ---------------------------------------------------------------------
                    Distance matrix (angstroms):
                    1          2          3          4          5
     1  N    0.000000
     2  N    1.353010   0.000000
     3  C    2.227364   1.357772   0.000000
     4  C    2.246827   2.205238   1.376024   0.000000
     5  C    1.324748   2.146743   2.206621   1.408413   0.000000
     6  H    3.239254   2.121368   1.079167   2.244920   3.274651
     7  H    3.286841   3.253751   2.205036   1.078921   2.237828
     8  C    2.487998   1.464204   2.509201   3.626139   3.559416
     9  O    3.535419   2.272650   2.766464   4.098879   4.403394
    10  O    2.788279   2.322050   3.595059   4.506532   4.071857
    11  H    1.419913   2.402823   3.564546   3.651480   2.520376
    12  H    2.086265   3.170641   3.268054   2.256450   1.081209
    13  O    2.481349   3.231061   4.506252   4.727199   3.618238
    14  H    2.530631   2.815593   4.168965   4.690517   3.829428
    15  H    3.038177   3.832030   5.074182   5.231646   4.076574
                    6          7          8          9         10
     6  H    0.000000
     7  H    2.752344   0.000000
     8  C    2.769928   4.633890   0.000000
     9  O    2.524340   4.966467   1.231414   0.000000
    10  O    4.002906   5.569436   1.259464   2.244115   0.000000
    11  H    4.496186   4.664286   2.883869   4.104484   2.515006
    12  H    4.321510   2.757199   4.521285   5.442380   4.858713
    13  O    5.351399   5.753746   3.267358   4.484443   2.463246
    14  H    4.860840   5.762663   2.442052   3.606508   1.459498
    15  H    5.926111   6.229388   3.859097   5.048498   3.016799
                   11         12         13         14         15
    11  H    0.000000
    12  H    2.839756   0.000000
    13  O    1.099523   3.864494   0.000000
    14  H    1.539676   4.331464   1.043621   0.000000
    15  H    1.703667   4.207393   0.971479   1.647516   0.000000
 Stoichiometry    C4H6N2O3(1-,2)
 Framework group  C1[X(C4H6N2O3)]
 Deg. of freedom    39
 Full point group                 C1      NOp   1
 Largest Abelian subgroup         C1      NOp   1
 Largest concise Abelian subgroup C1      NOp   1
                         Standard orientation:                         
 ---------------------------------------------------------------------
 Center     Atomic      Atomic             Coordinates (Angstroms)
 Number     Number       Type             X           Y           Z
 ---------------------------------------------------------------------
      1          7           0       -0.398974   -0.989536   -0.010789
      2          7           0       -0.348570    0.362474    0.002005
      3          6           0       -1.601718    0.885060    0.010358
      4          6           0       -2.489483   -0.166261    0.004130
      5          6           0       -1.681835   -1.320022   -0.008858
      6          1           0       -1.751311    1.953776    0.018652
      7          1           0       -3.567159   -0.114548    0.007283
      8          6           0        0.894923    1.135524   -0.001551
      9          8           0        0.740609    2.357045    0.019758
     10          8           0        1.970299    0.480422   -0.027174
     11          1           0        0.802128   -1.746806   -0.017803
     12          1           0       -1.970181   -2.362042   -0.016798
     13          8           0        1.874988   -1.980509   -0.075292
     14          1           0        2.131540   -0.970141   -0.025471
     15          1           0        2.169299   -2.432289    0.732821
 ---------------------------------------------------------------------
 Rotational constants (GHZ):           2.1398428           1.6260894           0.9261041
 Standard basis: 6-31+G(d,p) (6D, 7F)
 There are   201 symmetry adapted cartesian basis functions of A   symmetry.
 There are   201 symmetry adapted basis functions of A   symmetry.
   201 basis functions,   330 primitive gaussians,   201 cartesian basis functions
    35 alpha electrons       34 beta electrons
       nuclear repulsion energy       459.0814873356 Hartrees.
 NAtoms=   15 NActive=   15 NUniq=   15 SFac= 1.00D+00 NAtFMM=   60 NAOKFM=F Big=F
 Integral buffers will be    131072 words long.
 Raffenetti 2 integral format.
 Two-electron integral symmetry is turned on.
 Force inversion solution in PCM.
 ------------------------------------------------------------------------------
 Polarizable Continuum Model (PCM)
 =================================
 Model                : PCM.
 Atomic radii         : SMD-Coulomb.
 Polarization charges : Total charges.
 Charge compensation  : None.
 Solution method      : Matrix inversion.
 Cavity type          : VdW (van der Waals Surface) (Alpha=1.000).
 Cavity algorithm     : GePol (No added spheres)
                        Default sphere list used, NSphG=   15.
                        Lebedev-Laikov grids with approx.  5.0 points / Ang**2.
                        Smoothing algorithm: York/Karplus (Gamma=1.0000).
                        Polarization charges: spherical gaussians, with
                                              point-specific exponents (IZeta= 3).
                        Self-potential: point-specific (ISelfS= 7).
                        Self-field    : sphere-specific E.n sum rule (ISelfD= 2).
 1st derivatives      : Analytical E(r).r(x)/FMM algorithm (CHGder, D1EAlg=3).
                        Cavity 1st derivative terms included.
 2nd derivatives      : Analytical E(r).r(xy)/FMM algorithm (CHGder, D2EAlg=3).
                        Cavity 2nd derivative terms included.
 Solvent              : Water, Eps=  78.355300 Eps(inf)=   1.777849
 ------------------------------------------------------------------------------
 Spheres list:
 ISph  on   Nord     Re0    Alpha      Xe            Ye            Ze
    1   N      1    1.8900  1.000     -0.398974     -0.989536     -0.010789
    2   N      2    1.8900  1.000     -0.348570      0.362474      0.002005
    3   C      3    1.8500  1.000     -1.601718      0.885060      0.010358
    4   C      4    1.8500  1.000     -2.489483     -0.166261      0.004130
    5   C      5    1.8500  1.000     -1.681835     -1.320022     -0.008858
    6   H      6    1.2000  1.000     -1.751311      1.953776      0.018652
    7   H      7    1.2000  1.000     -3.567159     -0.114548      0.007283
    8   C      8    1.8500  1.000      0.894923      1.135524     -0.001551
    9   O      9    1.5200  1.000      0.740609      2.357045      0.019758
   10   O     10    1.5200  1.000      1.970299      0.480422     -0.027174
   11   H     11    1.2000  1.000      0.802128     -1.746806     -0.017803
   12   H     12    1.2000  1.000     -1.970181     -2.362042     -0.016798
   13   O     13    1.5200  1.000      1.874988     -1.980509     -0.075292
   14   H     14    1.2000  1.000      2.131540     -0.970141     -0.025471
   15   H     15    1.2000  1.000      2.169299     -2.432289      0.732821
 ------------------------------------------------------------------------------
 ------------------------------------------------------------------------------
 Atomic radii for non-electrostatic terms: SMD-CDS.
 ------------------------------------------------------------------------------
 Nuclear repulsion after PCM non-electrostatic terms =      459.0907136831 Hartrees.
 One-electron integrals computed using PRISM.
 NBasis=   201 RedAO= T EigKep=  3.32D-05  NBF=   201
 NBsUse=   201 1.00D-06 EigRej= -1.00D+00 NBFU=   201
 ExpMin= 4.38D-02 ExpMax= 5.48D+03 ExpMxC= 8.25D+02 IAcc=3 IRadAn=         5 AccDes= 0.00D+00
 Harris functional with IExCor= 1009 and IRadAn=       5 diagonalized for initial guess.
 HarFok:  IExCor= 1009 AccDes= 0.00D+00 IRadAn=         5 IDoV= 1 UseB2=F ITyADJ=14
 ICtDFT=  3500011 ScaDFX=  1.000000  1.000000  1.000000  1.000000
 FoFCou: FMM=F IPFlag=           0 FMFlag=      100000 FMFlg1=           0
         NFxFlg=           0 DoJE=T BraDBF=F KetDBF=T FulRan=T
         wScrn=  0.000000 ICntrl=       500 IOpCl=  0 I1Cent=   200000004 NGrid=           0
         NMat0=    1 NMatS0=      1 NMatT0=    0 NMatD0=    1 NMtDS0=    0 NMtDT0=    0
 Petite list used in FoFCou.
 Initial guess <Sx>= 0.0000 <Sy>= 0.0000 <Sz>= 0.5000 <S**2>= 0.7500 S= 0.5000
 Requested convergence on RMS density matrix=1.00D-08 within 128 cycles.
 Requested convergence on MAX density matrix=1.00D-06.
 Requested convergence on             energy=1.00D-06.
 No special actions if energy rises.
 Inv3:  Mode=1 IEnd=     4127787.
 Iteration    1 A*A^-1 deviation from unit magnitude is 3.22D-15 for    757.
 Iteration    1 A*A^-1 deviation from orthogonality  is 1.78D-15 for   1030    852.
 Iteration    1 A^-1*A deviation from unit magnitude is 3.11D-15 for    434.
 Iteration    1 A^-1*A deviation from orthogonality  is 7.28D-14 for    833    778.
 Error on total polarization charges =  0.06919
 SCF Done:  E(UM062X) =  -491.111905973     A.U. after   18 cycles
            NFock= 18  Conv=0.44D-08     -V/T= 2.0076
 <Sx>= 0.0000 <Sy>= 0.0000 <Sz>= 0.5000 <S**2>= 0.7593 S= 0.5046
 <L.S>=  0.00000000000    
 SMD-CDS (non-electrostatic) energy       (kcal/mol) =       5.79
 (included in total energy above)
 Annihilation of the first spin contaminant:
 S**2 before annihilation     0.7593,   after     0.7500
 DoSCS=F DFT=T ScalE2(SS,OS)=  1.000000  1.000000
 Range of M.O.s used for correlation:     1   201
 NBasis=   201 NAE=    35 NBE=    34 NFC=     0 NFV=     0
 NROrb=    201 NOA=    35 NOB=    34 NVA=   166 NVB=   167

 **** Warning!!: The largest alpha MO coefficient is  0.60750926D+02


 **** Warning!!: The largest beta MO coefficient is  0.65531662D+02

 Symmetrizing basis deriv contribution to polar:
 IMax=3 JMax=2 DiffMx= 0.00D+00
 G2DrvN: will do    16 centers at a time, making    1 passes.
 Calling FoFCou, ICntrl=  3107 FMM=F I1Cent=   0 AccDes= 0.00D+00.
 NEqPCM:  Using equilibrium solvation (IEInf=0, Eps=  78.3553, EpsInf=   1.7778)
 G2PCM: DoFxE=T DoFxN=T DoGrad=T DoDP/DQ/DG/TGxP=FFFF NFrqRd=   0 IEInf=0 SqF1=F DoCFld=F IF1Alg=4.
 End of G2Drv F.D. properties file   721 does not exist.
 End of G2Drv F.D. properties file   722 does not exist.
 End of G2Drv F.D. properties file   788 does not exist.
          IDoAtm=111111111111111
 NEqPCM:  Using equilibrium solvation (IEInf=0, Eps=  78.3553, EpsInf=   1.7778)
          Differentiating once with respect to nuclear coordinates.
 Keep R1 and R2 ints in memory in canonical form, NReq=436797402.
          There are    48 degrees of freedom in the 1st order CPHF.  IDoFFX=6 NUNeed=     0.
     42 vectors produced by pass  0 Test12= 2.39D-14 2.08D-09 XBig12= 2.79D-01 1.40D-01.
 AX will form    42 AO Fock derivatives at one time.
     42 vectors produced by pass  1 Test12= 2.39D-14 2.08D-09 XBig12= 2.58D-02 7.22D-02.
     42 vectors produced by pass  2 Test12= 2.39D-14 2.08D-09 XBig12= 1.95D-03 8.90D-03.
     42 vectors produced by pass  3 Test12= 2.39D-14 2.08D-09 XBig12= 3.07D-05 9.53D-04.
     42 vectors produced by pass  4 Test12= 2.39D-14 2.08D-09 XBig12= 2.98D-07 1.20D-04.
     42 vectors produced by pass  5 Test12= 2.39D-14 2.08D-09 XBig12= 2.75D-09 5.78D-06.
     42 vectors produced by pass  6 Test12= 2.39D-14 2.08D-09 XBig12= 2.23D-11 6.01D-07.
     27 vectors produced by pass  7 Test12= 2.39D-14 2.08D-09 XBig12= 1.83D-13 4.07D-08.
      2 vectors produced by pass  8 Test12= 2.39D-14 2.08D-09 XBig12= 1.43D-15 3.84D-09.
 InvSVY:  IOpt=1 It=  1 EMax= 1.89D-15
 Solved reduced A of dimension   323 with    42 vectors.
 End of Minotr F.D. properties file   721 does not exist.
 End of Minotr F.D. properties file   722 does not exist.
 End of Minotr F.D. properties file   788 does not exist.

 **********************************************************************

            Population analysis using the SCF density.

 **********************************************************************

 Orbital symmetries:
 Alpha Orbitals:
       Occupied  (A) (A) (A) (A) (A) (A) (A) (A) (A) (A) (A) (A)
                 (A) (A) (A) (A) (A) (A) (A) (A) (A) (A) (A) (A)
                 (A) (A) (A) (A) (A) (A) (A) (A) (A) (A) (A)
       Virtual   (A) (A) (A) (A) (A) (A) (A) (A) (A) (A) (A) (A)
                 (A) (A) (A) (A) (A) (A) (A) (A) (A) (A) (A) (A)
                 (A) (A) (A) (A) (A) (A) (A) (A) (A) (A) (A) (A)
                 (A) (A) (A) (A) (A) (A) (A) (A) (A) (A) (A) (A)
                 (A) (A) (A) (A) (A) (A) (A) (A) (A) (A) (A) (A)
                 (A) (A) (A) (A) (A) (A) (A) (A) (A) (A) (A) (A)
                 (A) (A) (A) (A) (A) (A) (A) (A) (A) (A) (A) (A)
                 (A) (A) (A) (A) (A) (A) (A) (A) (A) (A) (A) (A)
                 (A) (A) (A) (A) (A) (A) (A) (A) (A) (A) (A) (A)
                 (A) (A) (A) (A) (A) (A) (A) (A) (A) (A) (A) (A)
                 (A) (A) (A) (A) (A) (A) (A) (A) (A) (A) (A) (A)
                 (A) (A) (A) (A) (A) (A) (A) (A) (A) (A) (A) (A)
                 (A) (A) (A) (A) (A) (A) (A) (A) (A) (A) (A) (A)
                 (A) (A) (A) (A) (A) (A) (A) (A) (A) (A)
 Beta  Orbitals:
       Occupied  (A) (A) (A) (A) (A) (A) (A) (A) (A) (A) (A) (A)
                 (A) (A) (A) (A) (A) (A) (A) (A) (A) (A) (A) (A)
                 (A) (A) (A) (A) (A) (A) (A) (A) (A) (A)
       Virtual   (A) (A) (A) (A) (A) (A) (A) (A) (A) (A) (A) (A)
                 (A) (A) (A) (A) (A) (A) (A) (A) (A) (A) (A) (A)
                 (A) (A) (A) (A) (A) (A) (A) (A) (A) (A) (A) (A)
                 (A) (A) (A) (A) (A) (A) (A) (A) (A) (A) (A) (A)
                 (A) (A) (A) (A) (A) (A) (A) (A) (A) (A) (A) (A)
                 (A) (A) (A) (A) (A) (A) (A) (A) (A) (A) (A) (A)
                 (A) (A) (A) (A) (A) (A) (A) (A) (A) (A) (A) (A)
                 (A) (A) (A) (A) (A) (A) (A) (A) (A) (A) (A) (A)
                 (A) (A) (A) (A) (A) (A) (A) (A) (A) (A) (A) (A)
                 (A) (A) (A) (A) (A) (A) (A) (A) (A) (A) (A) (A)
                 (A) (A) (A) (A) (A) (A) (A) (A) (A) (A) (A) (A)
                 (A) (A) (A) (A) (A) (A) (A) (A) (A) (A) (A) (A)
                 (A) (A) (A) (A) (A) (A) (A) (A) (A) (A) (A) (A)
                 (A) (A) (A) (A) (A) (A) (A) (A) (A) (A) (A)
 The electronic state is 2-A.
 Alpha  occ. eigenvalues --  -19.68457 -19.61259 -19.59808 -14.80637 -14.75785
 Alpha  occ. eigenvalues --  -10.66695 -10.54219 -10.53638 -10.52159  -1.20045
 Alpha  occ. eigenvalues --   -1.17997  -1.13100  -1.08839  -0.90590  -0.85636
 Alpha  occ. eigenvalues --   -0.70112  -0.67062  -0.65977  -0.63672  -0.58151
 Alpha  occ. eigenvalues --   -0.55760  -0.54174  -0.51802  -0.50551  -0.48688
 Alpha  occ. eigenvalues --   -0.47242  -0.46508  -0.43771  -0.37248  -0.36355
 Alpha  occ. eigenvalues --   -0.35872  -0.33924  -0.31654  -0.30407  -0.09717
 Alpha virt. eigenvalues --    0.02978   0.04743   0.05185   0.06007   0.06880
 Alpha virt. eigenvalues --    0.07434   0.07997   0.08874   0.10881   0.11285
 Alpha virt. eigenvalues --    0.11986   0.12291   0.13075   0.13476   0.15365
 Alpha virt. eigenvalues --    0.16007   0.18241   0.18383   0.19970   0.21266
 Alpha virt. eigenvalues --    0.21891   0.22374   0.23455   0.23609   0.24939
 Alpha virt. eigenvalues --    0.25620   0.26692   0.27013   0.27357   0.28216
 Alpha virt. eigenvalues --    0.28699   0.29092   0.30011   0.31062   0.31764
 Alpha virt. eigenvalues --    0.32389   0.33442   0.34923   0.35861   0.36533
 Alpha virt. eigenvalues --    0.36858   0.38788   0.39867   0.42275   0.43770
 Alpha virt. eigenvalues --    0.45510   0.46559   0.50275   0.51765   0.53734
 Alpha virt. eigenvalues --    0.56016   0.69212   0.74436   0.77598   0.78087
 Alpha virt. eigenvalues --    0.79207   0.80646   0.82349   0.86383   0.89261
 Alpha virt. eigenvalues --    0.93474   0.94391   0.95187   0.97817   1.00310
 Alpha virt. eigenvalues --    1.01915   1.02932   1.04265   1.04380   1.06144
 Alpha virt. eigenvalues --    1.11471   1.15831   1.16498   1.19572   1.21759
 Alpha virt. eigenvalues --    1.23630   1.27272   1.28736   1.29294   1.30063
 Alpha virt. eigenvalues --    1.32026   1.33769   1.36459   1.37623   1.40335
 Alpha virt. eigenvalues --    1.41027   1.41849   1.43001   1.44889   1.46748
 Alpha virt. eigenvalues --    1.47639   1.49870   1.51644   1.51985   1.56705
 Alpha virt. eigenvalues --    1.58511   1.62716   1.62826   1.65713   1.68577
 Alpha virt. eigenvalues --    1.69745   1.80214   1.82052   1.86656   1.86721
 Alpha virt. eigenvalues --    1.90823   1.95625   1.97678   2.01069   2.02689
 Alpha virt. eigenvalues --    2.03196   2.04654   2.09402   2.10032   2.15675
 Alpha virt. eigenvalues --    2.19969   2.21466   2.23984   2.25700   2.29717
 Alpha virt. eigenvalues --    2.30239   2.32731   2.38125   2.40083   2.43829
 Alpha virt. eigenvalues --    2.45266   2.46927   2.49667   2.51725   2.55072
 Alpha virt. eigenvalues --    2.59044   2.59851   2.61359   2.63402   2.68299
 Alpha virt. eigenvalues --    2.72017   2.78552   2.79036   2.80705   2.88943
 Alpha virt. eigenvalues --    2.91326   2.93014   2.96291   3.00901   3.04209
 Alpha virt. eigenvalues --    3.07580   3.14475   3.15307   3.21776   3.27202
 Alpha virt. eigenvalues --    3.29036   3.35471   3.41817   3.50381   3.70424
 Alpha virt. eigenvalues --    3.80400   3.85932   4.18262   4.29102   4.39543
 Alpha virt. eigenvalues --    4.46204   4.50657   4.58807   4.68643   4.78667
 Alpha virt. eigenvalues --    4.81903
  Beta  occ. eigenvalues --  -19.68458 -19.61158 -19.59683 -14.80519 -14.75394
  Beta  occ. eigenvalues --  -10.66581 -10.54108 -10.53379 -10.52221  -1.19727
  Beta  occ. eigenvalues --   -1.17808  -1.12374  -1.08445  -0.89649  -0.84965
  Beta  occ. eigenvalues --   -0.69297  -0.66945  -0.65579  -0.63169  -0.57714
  Beta  occ. eigenvalues --   -0.55385  -0.52584  -0.51408  -0.50197  -0.48540
  Beta  occ. eigenvalues --   -0.46182  -0.45770  -0.43366  -0.36657  -0.35968
  Beta  occ. eigenvalues --   -0.34357  -0.33716  -0.29210  -0.27966
  Beta virt. eigenvalues --    0.02155   0.03384   0.04022   0.04460   0.04987
  Beta virt. eigenvalues --    0.06104   0.06742   0.07235   0.09063   0.09652
  Beta virt. eigenvalues --    0.10457   0.10566   0.11348   0.12611   0.13741
  Beta virt. eigenvalues --    0.14229   0.15351   0.17263   0.18369   0.19566
  Beta virt. eigenvalues --    0.20745   0.21529   0.22054   0.23002   0.23447
  Beta virt. eigenvalues --    0.24505   0.25495   0.26004   0.26337   0.26891
  Beta virt. eigenvalues --    0.27968   0.28629   0.28898   0.29750   0.31077
  Beta virt. eigenvalues --    0.31808   0.32070   0.33510   0.34568   0.35327
  Beta virt. eigenvalues --    0.36262   0.36591   0.38245   0.39654   0.41733
  Beta virt. eigenvalues --    0.43109   0.44915   0.46603   0.50027   0.52192
  Beta virt. eigenvalues --    0.53812   0.56255   0.69437   0.75070   0.77987
  Beta virt. eigenvalues --    0.79062   0.79300   0.81333   0.83080   0.86313
  Beta virt. eigenvalues --    0.89585   0.93653   0.94639   0.95397   0.98082
  Beta virt. eigenvalues --    1.00845   1.02720   1.03337   1.04427   1.04768
  Beta virt. eigenvalues --    1.06293   1.11585   1.15632   1.16711   1.20210
  Beta virt. eigenvalues --    1.21945   1.23652   1.27601   1.28844   1.29351
  Beta virt. eigenvalues --    1.30762   1.32007   1.33981   1.36936   1.38047
  Beta virt. eigenvalues --    1.40758   1.41582   1.42918   1.43208   1.44830
  Beta virt. eigenvalues --    1.47273   1.48117   1.50375   1.51780   1.52854
  Beta virt. eigenvalues --    1.57193   1.59045   1.62893   1.63040   1.65833
  Beta virt. eigenvalues --    1.68751   1.69880   1.80637   1.82213   1.86838
  Beta virt. eigenvalues --    1.86912   1.90990   1.96042   1.98048   2.01474
  Beta virt. eigenvalues --    2.03341   2.03430   2.05011   2.09725   2.10729
  Beta virt. eigenvalues --    2.16228   2.20412   2.21923   2.24196   2.25876
  Beta virt. eigenvalues --    2.30624   2.31067   2.33365   2.38765   2.40362
  Beta virt. eigenvalues --    2.44332   2.45674   2.47397   2.49902   2.52469
  Beta virt. eigenvalues --    2.55438   2.59368   2.60473   2.62576   2.63679
  Beta virt. eigenvalues --    2.69267   2.72620   2.79140   2.80006   2.81689
  Beta virt. eigenvalues --    2.89297   2.91970   2.93569   2.96501   3.01076
  Beta virt. eigenvalues --    3.05020   3.07973   3.14893   3.15698   3.22159
  Beta virt. eigenvalues --    3.27549   3.29332   3.36123   3.42078   3.51037
  Beta virt. eigenvalues --    3.70647   3.80763   3.86486   4.18365   4.29245
  Beta virt. eigenvalues --    4.39820   4.46734   4.50834   4.60098   4.69754
  Beta virt. eigenvalues --    4.78676   4.82970
          Condensed to atoms (all electrons):
               1          2          3          4          5          6
     1  N    7.931936  -0.452042   0.192339  -0.171292  -0.015244   0.031271
     2  N   -0.452042   7.669558  -0.034888  -0.130382   0.263583  -0.061858
     3  C    0.192339  -0.034888   6.086611   0.121248  -0.239317   0.437241
     4  C   -0.171292  -0.130382   0.121248   5.499219   0.448610  -0.051950
     5  C   -0.015244   0.263583  -0.239317   0.448610   5.512032  -0.006420
     6  H    0.031271  -0.061858   0.437241  -0.051950  -0.006420   0.477314
     7  H    0.011854  -0.005080  -0.005326   0.348466  -0.014894  -0.000498
     8  C   -0.085448   0.340766  -0.220025   0.022903   0.007244  -0.012502
     9  O    0.024919  -0.195430  -0.031242   0.037224  -0.003162  -0.005886
    10  O    0.015758  -0.156322   0.050296   0.005572  -0.010802  -0.000120
    11  H    0.166950  -0.012749   0.000539   0.008998  -0.011555  -0.000018
    12  H   -0.071322   0.024969  -0.001265  -0.049537   0.427365  -0.000103
    13  O   -0.130224   0.024317   0.024595  -0.024470  -0.004270   0.000066
    14  H    0.004221  -0.000073   0.000358  -0.000127   0.001204   0.000000
    15  H    0.002688  -0.001819  -0.001187   0.001266   0.000981  -0.000000
               7          8          9         10         11         12
     1  N    0.011854  -0.085448   0.024919   0.015758   0.166950  -0.071322
     2  N   -0.005080   0.340766  -0.195430  -0.156322  -0.012749   0.024969
     3  C   -0.005326  -0.220025  -0.031242   0.050296   0.000539  -0.001265
     4  C    0.348466   0.022903   0.037224   0.005572   0.008998  -0.049537
     5  C   -0.014894   0.007244  -0.003162  -0.010802  -0.011555   0.427365
     6  H   -0.000498  -0.012502  -0.005886  -0.000120  -0.000018  -0.000103
     7  H    0.484305  -0.001230  -0.000127   0.000040  -0.000035  -0.000580
     8  C   -0.001230   4.517481   0.390742   0.234211  -0.007949   0.000635
     9  O   -0.000127   0.390742   8.658057  -0.115050   0.000338   0.000073
    10  O    0.000040   0.234211  -0.115050   8.824550   0.006023   0.000053
    11  H   -0.000035  -0.007949   0.000338   0.006023   0.240034  -0.000825
    12  H   -0.000580   0.000635   0.000073   0.000053  -0.000825   0.491570
    13  O    0.000044  -0.011077  -0.003239  -0.074964   0.103574   0.000278
    14  H   -0.000000  -0.006688   0.001644   0.075909  -0.006749   0.000001
    15  H   -0.000000   0.001390  -0.000005   0.001246  -0.006613  -0.000007
              13         14         15
     1  N   -0.130224   0.004221   0.002688
     2  N    0.024317  -0.000073  -0.001819
     3  C    0.024595   0.000358  -0.001187
     4  C   -0.024470  -0.000127   0.001266
     5  C   -0.004270   0.001204   0.000981
     6  H    0.000066   0.000000  -0.000000
     7  H    0.000044  -0.000000  -0.000000
     8  C   -0.011077  -0.006688   0.001390
     9  O   -0.003239   0.001644  -0.000005
    10  O   -0.074964   0.075909   0.001246
    11  H    0.103574  -0.006749  -0.006613
    12  H    0.000278   0.000001  -0.000007
    13  O    8.399384   0.194550   0.280260
    14  H    0.194550   0.207566  -0.011467
    15  H    0.280260  -0.011467   0.253648
          Atomic-Atomic Spin Densities.
               1          2          3          4          5          6
     1  N    0.657832  -0.253266   0.226094  -0.070500  -0.283818  -0.001026
     2  N   -0.253266   0.351885  -0.356270   0.079188   0.124673   0.004561
     3  C    0.226094  -0.356270   0.899690  -0.153620  -0.203984  -0.006174
     4  C   -0.070500   0.079188  -0.153620  -0.081148   0.149988  -0.000268
     5  C   -0.283818   0.124673  -0.203984   0.149988   0.401207   0.001823
     6  H   -0.001026   0.004561  -0.006174  -0.000268   0.001823  -0.020302
     7  H   -0.000699   0.000293  -0.002156  -0.003517   0.006670   0.000042
     8  C   -0.053076   0.146393  -0.077029   0.011594   0.016762   0.001027
     9  O    0.012597  -0.044637   0.044504  -0.009865  -0.005891   0.000815
    10  O    0.026508  -0.042311   0.019961  -0.003432  -0.007607   0.000179
    11  H   -0.002530  -0.003648   0.001083   0.000267  -0.002162   0.000001
    12  H    0.003073  -0.001724  -0.001735   0.010378  -0.009458   0.000002
    13  O    0.000446   0.002557   0.000040  -0.000792   0.001693  -0.000008
    14  H    0.001141  -0.001101   0.000022   0.000136  -0.000099  -0.000000
    15  H   -0.001973   0.000894  -0.000438   0.000178   0.000601   0.000000
               7          8          9         10         11         12
     1  N   -0.000699  -0.053076   0.012597   0.026508  -0.002530   0.003073
     2  N    0.000293   0.146393  -0.044637  -0.042311  -0.003648  -0.001724
     3  C   -0.002156  -0.077029   0.044504   0.019961   0.001083  -0.001735
     4  C   -0.003517   0.011594  -0.009865  -0.003432   0.000267   0.010378
     5  C    0.006670   0.016762  -0.005891  -0.007607  -0.002162  -0.009458
     6  H    0.000042   0.001027   0.000815   0.000179   0.000001   0.000002
     7  H    0.001678  -0.000245   0.000011   0.000001   0.000000  -0.000006
     8  C   -0.000245   0.255046  -0.080006  -0.070599   0.000165   0.000021
     9  O    0.000011  -0.080006   0.127269   0.018206  -0.000037  -0.000007
    10  O    0.000001  -0.070599   0.018206   0.100423   0.000016   0.000002
    11  H    0.000000   0.000165  -0.000037   0.000016  -0.005028   0.000098
    12  H   -0.000006   0.000021  -0.000007   0.000002   0.000098  -0.010634
    13  O    0.000001  -0.001103   0.000120   0.001131   0.005377   0.000046
    14  H   -0.000000   0.000011  -0.000026  -0.000606  -0.000016  -0.000000
    15  H   -0.000000   0.000298  -0.000013  -0.000532  -0.000137   0.000000
              13         14         15
     1  N    0.000446   0.001141  -0.001973
     2  N    0.002557  -0.001101   0.000894
     3  C    0.000040   0.000022  -0.000438
     4  C   -0.000792   0.000136   0.000178
     5  C    0.001693  -0.000099   0.000601
     6  H   -0.000008  -0.000000   0.000000
     7  H    0.000001  -0.000000  -0.000000
     8  C   -0.001103   0.000011   0.000298
     9  O    0.000120  -0.000026  -0.000013
    10  O    0.001131  -0.000606  -0.000532
    11  H    0.005377  -0.000016  -0.000137
    12  H    0.000046  -0.000000   0.000000
    13  O   -0.002498   0.000005  -0.003856
    14  H    0.000005   0.000029   0.000228
    15  H   -0.003856   0.000228   0.004719
 Mulliken charges and spin densities:
               1          2
     1  N   -0.456364   0.260802
     2  N   -0.272549   0.007486
     3  C   -0.379978   0.389987
     4  C   -0.065749  -0.071414
     5  C   -0.355356   0.190398
     6  H    0.193462  -0.019328
     7  H    0.183063   0.002073
     8  C    0.829547   0.149258
     9  O   -0.758856   0.063043
    10  O   -0.856401   0.041339
    11  H    0.520038  -0.006551
    12  H    0.178694  -0.009944
    13  O   -0.778822   0.003158
    14  H    0.539649  -0.000277
    15  H    0.479620  -0.000029
 Sum of Mulliken charges =  -1.00000   1.00000
 Mulliken charges and spin densities with hydrogens summed into heavy atoms:
               1          2
     1  N   -0.456364   0.260802
     2  N   -0.272549   0.007486
     3  C   -0.186516   0.370658
     4  C    0.117314  -0.069341
     5  C   -0.176662   0.180453
     8  C    0.829547   0.149258
     9  O   -0.758856   0.063043
    10  O   -0.856401   0.041339
    13  O    0.760486  -0.003698
 APT charges:
               1
     1  N   -0.418385
     2  N   -0.333526
     3  C   -0.798945
     4  C   -0.531929
     5  C   -0.778420
     6  H    0.546822
     7  H    0.753746
     8  C    0.466158
     9  O   -0.598558
    10  O   -0.699369
    11  H    0.379357
    12  H    0.631214
    13  O   -0.869148
    14  H    0.390233
    15  H    0.860749
 Sum of APT charges =  -1.00000
 APT charges with hydrogens summed into heavy atoms:
               1
     1  N   -0.418385
     2  N   -0.333526
     3  C   -0.252123
     4  C    0.221817
     5  C   -0.147206
     8  C    0.466158
     9  O   -0.598558
    10  O   -0.699369
    13  O    0.761191
 Electronic spatial extent (au):  <R**2>=           1205.4806
 Charge=             -1.0000 electrons
 Dipole moment (field-independent basis, Debye):
    X=             -0.6936    Y=             -9.8554    Z=              1.9570  Tot=             10.0718
 Quadrupole moment (field-independent basis, Debye-Ang):
   XX=            -63.8700   YY=            -67.8865   ZZ=            -58.9239
   XY=            -13.8235   XZ=              4.4746   YZ=             -5.0768
 Traceless Quadrupole moment (field-independent basis, Debye-Ang):
   XX=             -0.3099   YY=             -4.3264   ZZ=              4.6363
   XY=            -13.8235   XZ=              4.4746   YZ=             -5.0768
 Octapole moment (field-independent basis, Debye-Ang**2):
  XXX=             11.9677  YYY=            -75.7956  ZZZ=              2.0400  XYY=              1.6421
  XXY=            -26.6653  XXZ=             10.3303  XZZ=             18.3601  YZZ=             -4.8140
  YYZ=             12.2783  XYZ=            -11.0521
 Hexadecapole moment (field-independent basis, Debye-Ang**3):
 XXXX=           -875.1940 YYYY=           -717.3786 ZZZZ=            -74.5899 XXXY=            -74.2768
 XXXZ=             24.1704 YYYX=            -86.4005 YYYZ=            -34.1532 ZZZX=              4.9463
 ZZZY=             -5.7607 XXYY=           -242.6196 XXZZ=           -176.3361 YYZZ=           -124.7995
 XXYZ=            -24.6817 YYXZ=             27.7302 ZZXY=            -14.3921
 N-N= 4.590907136831D+02 E-N=-2.080958433474D+03  KE= 4.873924240931D+02
  Exact polarizability:   0.000   0.000   0.000   0.000   0.000   0.000
 Approx polarizability: 122.719   7.746 125.899   0.172  -0.216  70.134
                          Isotropic Fermi Contact Couplings
        Atom                 a.u.       MegaHertz       Gauss      10(-4) cm-1
     1  N(14)              0.06037      19.50463       6.95974       6.50604
     2  N(14)             -0.00191      -0.61571      -0.21970      -0.20538
     3  C(13)              0.04853      54.56102      19.46873      18.19960
     4  C(13)             -0.02026     -22.77178      -8.12554      -7.59585
     5  C(13)              0.02092      23.52060       8.39273       7.84563
     6  H(1)              -0.00570     -25.47050      -9.08851      -8.49605
     7  H(1)               0.00041       1.83809       0.65588       0.61312
     8  C(13)              0.02443      27.46921       9.80170       9.16274
     9  O(17)              0.01369      -8.29668      -2.96046      -2.76747
    10  O(17)              0.01076      -6.52506      -2.32830      -2.17653
    11  H(1)              -0.00129      -5.77450      -2.06049      -1.92617
    12  H(1)              -0.00293     -13.10441      -4.67598      -4.37116
    13  O(17)             -0.00382       2.31674       0.82667       0.77278
    14  H(1)              -0.00011      -0.48331      -0.17246      -0.16121
    15  H(1)               0.00036       1.62119       0.57848       0.54077
 --------------------------------------------------------
       Center         ----  Spin Dipole Couplings  ----
                      3XX-RR        3YY-RR        3ZZ-RR
 --------------------------------------------------------
     1   Atom       -0.297864     -0.289772      0.587637
     2   Atom       -0.118913     -0.115207      0.234120
     3   Atom       -0.167243     -0.161069      0.328313
     4   Atom        0.025391      0.023577     -0.048968
     5   Atom       -0.077136     -0.080934      0.158070
     6   Atom       -0.024367      0.023539      0.000827
     7   Atom        0.003079      0.001528     -0.004607
     8   Atom       -0.091416     -0.097148      0.188565
     9   Atom       -0.118894     -0.129503      0.248397
    10   Atom       -0.103144     -0.100709      0.203853
    11   Atom        0.007853     -0.000569     -0.007284
    12   Atom       -0.012828      0.014803     -0.001975
    13   Atom       -0.007998     -0.000758      0.008757
    14   Atom        0.003231      0.001883     -0.005114
    15   Atom        0.001323      0.000855     -0.002178
 --------------------------------------------------------
                        XY            XZ            YZ
 --------------------------------------------------------
     1   Atom       -0.001132      0.002856     -0.005830
     2   Atom        0.007785      0.001199     -0.002190
     3   Atom       -0.004673      0.000460     -0.003337
     4   Atom        0.000665     -0.000249      0.000676
     5   Atom        0.004605      0.001418     -0.002448
     6   Atom       -0.008823     -0.000047      0.000158
     7   Atom       -0.000730     -0.000027      0.000059
     8   Atom        0.007344      0.004468     -0.003811
     9   Atom        0.002485      0.005301     -0.006450
    10   Atom        0.004358      0.004765     -0.004922
    11   Atom       -0.014447     -0.000238     -0.000021
    12   Atom        0.008349      0.000137      0.000141
    13   Atom       -0.003473     -0.000647      0.003168
    14   Atom       -0.003442      0.000003      0.000139
    15   Atom       -0.002967      0.001115     -0.001146
 --------------------------------------------------------


 ---------------------------------------------------------------------------------
              Anisotropic Spin Dipole Couplings in Principal Axis System
 ---------------------------------------------------------------------------------

       Atom             a.u.   MegaHertz   Gauss  10(-4) cm-1        Axes

              Baa    -0.2980   -11.494    -4.101    -3.834  0.9909  0.1343 -0.0023
     1 N(14)  Bbb    -0.2897   -11.172    -3.986    -3.726 -0.1343  0.9909  0.0070
              Bcc     0.5877    22.666     8.088     7.560  0.0032 -0.0066  1.0000
 
              Baa    -0.1251    -4.824    -1.721    -1.609  0.7845 -0.6202 -0.0064
     2 N(14)  Bbb    -0.1091    -4.206    -1.501    -1.403  0.6202  0.7845  0.0028
              Bcc     0.2341     9.030     3.222     3.012  0.0033 -0.0062  1.0000
 
              Baa    -0.1698   -22.780    -8.129    -7.599  0.8804  0.4743  0.0024
     3 C(13)  Bbb    -0.1586   -21.279    -7.593    -7.098 -0.4743  0.8803  0.0065
              Bcc     0.3283    44.060    15.722    14.697  0.0010 -0.0068  1.0000
 
              Baa    -0.0490    -6.572    -2.345    -2.192  0.0034 -0.0093  1.0000
     4 C(13)  Bbb     0.0234     3.136     1.119     1.046 -0.3110  0.9504  0.0099
              Bcc     0.0256     3.437     1.226     1.146  0.9504  0.3110 -0.0004
 
              Baa    -0.0840   -11.279    -4.024    -3.762 -0.5560  0.8311  0.0117
     5 C(13)  Bbb    -0.0741    -9.937    -3.546    -3.315  0.8312  0.5560  0.0008
              Bcc     0.1581    21.216     7.570     7.077  0.0058 -0.0101  0.9999
 
              Baa    -0.0259   -13.841    -4.939    -4.617  0.9845  0.1755  0.0007
     6 H(1)   Bbb     0.0008     0.441     0.157     0.147  0.0005 -0.0068  1.0000
              Bcc     0.0251    13.400     4.781     4.470 -0.1755  0.9844  0.0067
 
              Baa    -0.0046    -2.458    -0.877    -0.820  0.0027 -0.0092  1.0000
     7 H(1)   Bbb     0.0012     0.661     0.236     0.221  0.3688  0.9295  0.0076
              Bcc     0.0034     1.797     0.641     0.599  0.9295 -0.3687 -0.0059
 
              Baa    -0.1023   -13.725    -4.897    -4.578 -0.5656  0.8245  0.0195
     8 C(13)  Bbb    -0.0864   -11.595    -4.137    -3.868  0.8246  0.5658 -0.0056
              Bcc     0.1887    25.320     9.035     8.446  0.0156 -0.0129  0.9998
 
              Baa    -0.1302     9.421     3.362     3.143 -0.2234  0.9745  0.0197
     9 O(17)  Bbb    -0.1184     8.566     3.057     2.857  0.9746  0.2236 -0.0102
              Bcc     0.2486   -17.987    -6.418    -6.000  0.0143 -0.0170  0.9998
 
              Baa    -0.1066     7.713     2.752     2.573  0.7949 -0.6064 -0.0218
    10 O(17)  Bbb    -0.0974     7.048     2.515     2.351  0.6066  0.7950  0.0034
              Bcc     0.2040   -14.762    -5.267    -4.924  0.0153 -0.0159  0.9998
 
              Baa    -0.0114    -6.089    -2.173    -2.031  0.5998  0.7992  0.0386
    11 H(1)   Bbb    -0.0073    -3.884    -1.386    -1.296 -0.0177 -0.0350  0.9992
              Bcc     0.0187     9.973     3.559     3.327  0.8000 -0.6000 -0.0069
 
              Baa    -0.0152    -8.086    -2.885    -2.697  0.9633 -0.2684 -0.0071
    12 H(1)   Bbb    -0.0020    -1.054    -0.376    -0.352  0.0044 -0.0106  0.9999
              Bcc     0.0171     9.141     3.262     3.049  0.2685  0.9632  0.0090
 
              Baa    -0.0094     0.681     0.243     0.227  0.9232  0.3828 -0.0338
    13 O(17)  Bbb    -0.0005     0.033     0.012     0.011 -0.3724  0.8693 -0.3251
              Bcc     0.0099    -0.714    -0.255    -0.238 -0.0950  0.3127  0.9451
 
              Baa    -0.0051    -2.730    -0.974    -0.911 -0.0108 -0.0252  0.9996
    14 H(1)   Bbb    -0.0009    -0.505    -0.180    -0.169  0.6355  0.7716  0.0263
              Bcc     0.0061     3.236     1.155     1.079  0.7720 -0.6356 -0.0077
 
              Baa    -0.0026    -1.373    -0.490    -0.458 -0.0893  0.2455  0.9653
    15 H(1)   Bbb    -0.0019    -1.002    -0.357    -0.334  0.6967  0.7080 -0.1156
              Bcc     0.0045     2.374     0.847     0.792  0.7118 -0.6621  0.2342
 

 ---------------------------------------------------------------------------------

 D2PCM: PCM CHGder 2nd derivatives, FixD1E=F FixD2E=F DoIter=F DoCFld=F I1PDM=0
 Calling FoFJK, ICntrl=    100147 FMM=F ISym2X=0 I1Cent= 0 IOpClX= 1 NMat=1 NMatS=1 NMatT=0.
 ***** Axes restored to original set *****
 -------------------------------------------------------------------
 Center     Atomic                   Forces (Hartrees/Bohr)
 Number     Number              X              Y              Z
 -------------------------------------------------------------------
      1        7          -0.048605579    0.028045067   -0.000564940
      2        7          -0.073710021   -0.040227743    0.000090061
      3        6           0.023188179   -0.036293844    0.000596489
      4        6           0.002759801    0.027321715   -0.000298010
      5        6           0.052191071    0.005881061    0.000143128
      6        1           0.000656378    0.001373493   -0.000008978
      7        1           0.001289860    0.000451099    0.000024578
      8        6           0.070110893    0.049759236    0.000187195
      9        8          -0.002197578   -0.043642780    0.000636365
     10        8          -0.036527680    0.016715922   -0.000713517
     11        1           0.019037345   -0.010113558    0.000170291
     12        1           0.001157846    0.000057374   -0.000010765
     13        8          -0.012003606    0.008453497    0.000500187
     14        1           0.002725010   -0.007199357    0.000190371
     15        1          -0.000071918   -0.000581183   -0.000942454
 -------------------------------------------------------------------
 Cartesian Forces:  Max     0.073710021 RMS     0.024599480
 FormGI is forming the generalized inverse of G from B-inverse, IUseBI=4.

 GradGradGradGradGradGradGradGradGradGradGradGradGradGradGradGradGradGrad
 Berny optimization.
 Internal  Forces:  Max     0.045980912 RMS     0.012091599
 Search for a saddle point.
 Step number   1 out of a maximum of   83
 All quantities printed in internal units (Hartrees-Bohrs-Radians)
 Swapping is turned off.
 Second derivative matrix not updated -- analytic derivatives used.
 ITU=  0
     Eigenvalues ---   -0.01244  -0.00020   0.00131   0.00162   0.00213
     Eigenvalues ---    0.00289   0.00709   0.01114   0.01445   0.01678
     Eigenvalues ---    0.01803   0.03467   0.04917   0.05040   0.05520
     Eigenvalues ---    0.07065   0.07982   0.09034   0.10175   0.10366
     Eigenvalues ---    0.11152   0.16055   0.21638   0.23050   0.23997
     Eigenvalues ---    0.26568   0.30780   0.32969   0.35117   0.36540
     Eigenvalues ---    0.38044   0.38569   0.38778   0.43440   0.49306
     Eigenvalues ---    0.52232   0.57094   0.60070   0.77527
 Eigenvectors required to have negative eigenvalues:
                          R3        R13       R14       A20       A24
   1                    0.67275  -0.50422  -0.38076  -0.21894   0.21620
                          R15       A18       A3        A22       A23
   1                    0.17939  -0.04702   0.04534  -0.04357   0.04166
 RFO step:  Lambda0=2.134836074D-03 Lambda=-2.93543921D-02.
 Linear search not attempted -- option 19 set.
 Maximum step size (   0.300) exceeded in Quadratic search.
    -- Step size scaled by   0.513
 Iteration  1 RMS(Cart)=  0.05246244 RMS(Int)=  0.00787840
 Iteration  2 RMS(Cart)=  0.00429054 RMS(Int)=  0.00128767
 Iteration  3 RMS(Cart)=  0.00006830 RMS(Int)=  0.00128552
 Iteration  4 RMS(Cart)=  0.00000017 RMS(Int)=  0.00128552
 Variable       Old X    -DE/DX   Delta X   Delta X   Delta X     New X
                                 (Linear)    (Quad)   (Total)
    R1        2.55682   0.03101   0.00000   0.03476   0.03481   2.59163
    R2        2.50341   0.04598   0.00000   0.03306   0.03355   2.53696
    R3        2.68325  -0.00984   0.00000   0.05304   0.05372   2.73697
    R4        2.56582   0.03733   0.00000   0.03915   0.03886   2.60468
    R5        2.76694  -0.03883   0.00000  -0.11381  -0.11458   2.65237
    R6        2.60031   0.02666   0.00000   0.02016   0.01967   2.61998
    R7        2.03933  -0.00126   0.00000  -0.00288  -0.00288   2.03645
    R8        2.66152  -0.00735   0.00000  -0.01999  -0.01996   2.64155
    R9        2.03886   0.00127   0.00000   0.00170   0.00170   2.04056
   R10        2.04319   0.00035   0.00000   0.00002   0.00002   2.04321
   R11        2.32704   0.04302   0.00000   0.03342   0.03342   2.36046
   R12        2.38004   0.03654   0.00000   0.04623   0.04565   2.42569
   R13        2.75805  -0.00330   0.00000  -0.20154  -0.20154   2.55651
   R14        2.07780   0.01193   0.00000  -0.02794  -0.02716   2.05063
   R15        1.97216   0.00381   0.00000   0.07137   0.07164   2.04380
   R16        1.83583  -0.00101   0.00000  -0.00207  -0.00207   1.83376
    A1        1.86017  -0.00245   0.00000  -0.00846  -0.01013   1.85004
    A2        2.09608  -0.00022   0.00000  -0.01259  -0.01729   2.07879
    A3        2.32693   0.00268   0.00000   0.02042   0.01628   2.34321
    A4        1.92866  -0.00801   0.00000  -0.00567  -0.00425   1.92441
    A5        2.16421   0.00200   0.00000   0.00396   0.00139   2.16560
    A6        2.19030   0.00602   0.00000   0.00160   0.00258   2.19288
    A7        1.87692  -0.00149   0.00000  -0.00883  -0.00934   1.86758
    A8        2.10498   0.00158   0.00000   0.00368   0.00387   2.10885
    A9        2.30128  -0.00009   0.00000   0.00517   0.00537   2.30665
   A10        1.82964   0.01055   0.00000   0.01503   0.01483   1.84447
   A11        2.22407  -0.00478   0.00000  -0.00862  -0.00853   2.21554
   A12        2.22948  -0.00577   0.00000  -0.00640  -0.00631   2.22317
   A13        1.92940   0.00140   0.00000   0.00790   0.00862   1.93802
   A14        2.09286   0.00044   0.00000  -0.00503  -0.00541   2.08745
   A15        2.26093  -0.00185   0.00000  -0.00288  -0.00324   2.25768
   A16        2.00122   0.00807   0.00000   0.03145   0.03290   2.03412
   A17        2.03819   0.00171   0.00000   0.02631   0.02341   2.06160
   A18        2.24377  -0.00978   0.00000  -0.05777  -0.05634   2.18743
   A19        2.22845  -0.00343   0.00000  -0.04243  -0.04484   2.18361
   A20        2.79051   0.00051   0.00000  -0.04250  -0.04176   2.74875
   A21        1.60240  -0.00184   0.00000  -0.02451  -0.02407   1.57833
   A22        1.92939   0.00065   0.00000  -0.00504  -0.00566   1.92373
   A23        1.91351   0.00021   0.00000   0.01317   0.01324   1.92674
   A24        2.77904   0.00129   0.00000   0.08776   0.08630   2.86535
    D1       -0.00130   0.00002   0.00000  -0.02208  -0.02110  -0.02241
    D2       -3.13662  -0.00001   0.00000  -0.00332  -0.00234  -3.13896
    D3       -3.13879   0.00010   0.00000   0.11330   0.11240  -3.02639
    D4        0.00908   0.00007   0.00000   0.13205   0.13116   0.14024
    D5        0.00100   0.00002   0.00000   0.01829   0.01784   0.01884
    D6       -3.14060   0.00003   0.00000   0.00976   0.01002  -3.13058
    D7        3.13771  -0.00010   0.00000  -0.14284  -0.14541   2.99230
    D8       -0.00390  -0.00008   0.00000  -0.15137  -0.15322  -0.15712
    D9       -0.14706  -0.00019   0.00000  -0.11921  -0.11945  -0.26651
   D10        2.99995  -0.00006   0.00000   0.05926   0.06030   3.06025
   D11        0.00110  -0.00003   0.00000   0.01729   0.01640   0.01751
   D12       -3.13909   0.00000   0.00000   0.00149   0.00119  -3.13790
   D13        3.13631  -0.00002   0.00000  -0.00179  -0.00272   3.13358
   D14       -0.00389   0.00001   0.00000  -0.01759  -0.01793  -0.02182
   D15       -3.13448  -0.00001   0.00000  -0.01512  -0.01390   3.13480
   D16        0.00852  -0.00001   0.00000  -0.00966  -0.00741   0.00111
   D17        0.01433   0.00000   0.00000   0.00648   0.00778   0.02211
   D18       -3.12585   0.00001   0.00000   0.01193   0.01427  -3.11158
   D19       -0.00046   0.00004   0.00000  -0.00565  -0.00512  -0.00558
   D20       -3.14085   0.00000   0.00000  -0.00463  -0.00445   3.13788
   D21        3.13952  -0.00000   0.00000   0.01260   0.01249  -3.13118
   D22       -0.00088  -0.00004   0.00000   0.01362   0.01316   0.01228
   D23       -0.00034  -0.00003   0.00000  -0.00798  -0.00806  -0.00840
   D24        3.14126  -0.00005   0.00000   0.00161   0.00073  -3.14120
   D25        3.14005   0.00000   0.00000  -0.00900  -0.00874   3.13131
   D26       -0.00153  -0.00001   0.00000   0.00059   0.00005  -0.00148
   D27       -0.02474   0.00009   0.00000  -0.12388  -0.12236  -0.14710
   D28        3.11849   0.00008   0.00000  -0.11764  -0.11533   3.00315
   D29        0.16473   0.00004   0.00000   0.14621   0.14498   0.30971
   D30        0.17843  -0.00001   0.00000  -0.00323  -0.00374   0.17469
   D31        2.12920  -0.00043   0.00000  -0.00009  -0.00023   2.12897
   D32       -0.18356  -0.00004   0.00000  -0.02425  -0.02555  -0.20912
   D33       -2.14858  -0.00003   0.00000  -0.01144  -0.01204  -2.16062
         Item               Value     Threshold  Converged?
 Maximum Force            0.045981     0.000450     NO 
 RMS     Force            0.012092     0.000300     NO 
 Maximum Displacement     0.169986     0.001800     NO 
 RMS     Displacement     0.055289     0.001200     NO 
 Predicted change in Energy=-1.107013D-02
 GradGradGradGradGradGradGradGradGradGradGradGradGradGradGradGradGradGrad

                          Input orientation:                          
 ---------------------------------------------------------------------
 Center     Atomic      Atomic             Coordinates (Angstroms)
 Number     Number       Type             X           Y           Z
 ---------------------------------------------------------------------
      1          7           0        0.396003    1.010603   -0.087868
      2          7           0        0.329202   -0.357363   -0.016956
      3          6           0        1.597258   -0.895136    0.034444
      4          6           0        2.488855    0.166457    0.017918
      5          6           0        1.701937    1.319683   -0.051475
      6          1           0        1.743089   -1.961427    0.089889
      7          1           0        3.566675    0.109279    0.050187
      8          6           0       -0.869167   -1.087964   -0.029360
      9          8           0       -0.765765   -2.331135    0.034575
     10          8           0       -1.973020   -0.438255   -0.113404
     11          1           0       -0.827678    1.780950   -0.005036
     12          1           0        2.006502    2.356591   -0.084541
     13          8           0       -1.896093    1.970191   -0.019998
     14          1           0       -2.092597    0.906707   -0.029878
     15          1           0       -2.179754    2.358671    0.822774
 ---------------------------------------------------------------------
                    Distance matrix (angstroms):
                    1          2          3          4          5
     1  N    0.000000
     2  N    1.371431   0.000000
     3  C    2.256062   1.378335   0.000000
     4  C    2.259159   2.222545   1.386434   0.000000
     5  C    1.342504   2.167504   2.218955   1.397850   0.000000
     6  H    3.267905   2.140914   1.077645   2.255935   3.284412
     7  H    3.299183   3.271620   2.210815   1.079818   2.225458
     8  C    2.451135   1.403573   2.474773   3.584985   3.522474
     9  O    3.540044   2.257739   2.765135   4.102536   4.407428
    10  O    2.777069   2.305661   3.602427   4.504581   4.074247
    11  H    1.448342   2.431234   3.611553   3.688700   2.571746
    12  H    2.098904   3.191152   3.279537   2.244960   1.081218
    13  O    2.485784   3.220164   4.518469   4.741589   3.656497
    14  H    2.491443   2.731877   4.106800   4.641116   3.817002
    15  H    3.046487   3.791681   5.047232   5.220106   4.112339
                    6          7          8          9         10
     6  H    0.000000
     7  H    2.759506   0.000000
     8  C    2.756998   4.595260   0.000000
     9  O    2.536551   4.972515   1.249101   0.000000
    10  O    4.021299   5.569092   1.283619   2.249968   0.000000
    11  H    4.541282   4.701902   2.869317   4.112742   2.499684
    12  H    4.329560   2.739106   4.487479   5.447424   4.862982
    13  O    5.358483   5.771461   3.225984   4.447698   2.411483
    14  H    4.790932   5.715739   2.339977   3.499751   1.352848
    15  H    5.881247   6.219173   3.784582   4.961341   2.956681
                   11         12         13         14         15
    11  H    0.000000
    12  H    2.893141   0.000000
    13  O    1.085148   3.922209   0.000000
    14  H    1.537835   4.348306   1.081531   0.000000
    15  H    1.687347   4.283453   0.970384   1.686063   0.000000
 Stoichiometry    C4H6N2O3(1-,2)
 Framework group  C1[X(C4H6N2O3)]
 Deg. of freedom    39
 Full point group                 C1      NOp   1
 Largest Abelian subgroup         C1      NOp   1
 Largest concise Abelian subgroup C1      NOp   1
                         Standard orientation:                         
 ---------------------------------------------------------------------
 Center     Atomic      Atomic             Coordinates (Angstroms)
 Number     Number       Type             X           Y           Z
 ---------------------------------------------------------------------
      1          7           0       -0.389574   -1.003660   -0.076115
      2          7           0       -0.336991    0.364909   -0.004881
      3          6           0       -1.610603    0.889568    0.044661
      4          6           0       -2.491179   -0.181160    0.026598
      5          6           0       -1.692304   -1.326197   -0.041773
      6          1           0       -1.767507    1.954289    0.100054
      7          1           0       -3.569580   -0.135105    0.057224
      8          6           0        0.853797    1.107831   -0.015331
      9          8           0        0.737483    2.349859    0.048646
     10          8           0        1.964419    0.469555   -0.097786
     11          1           0        0.841859   -1.761362    0.008470
     12          1           0       -1.986109   -2.366185   -0.075473
     13          8           0        1.912190   -1.939572   -0.004885
     14          1           0        2.097732   -0.874117   -0.014292
     15          1           0        2.198552   -2.325255    0.838259
 ---------------------------------------------------------------------
 Rotational constants (GHZ):           2.1704862           1.6153112           0.9296067
 Standard basis: 6-31+G(d,p) (6D, 7F)
 There are   201 symmetry adapted cartesian basis functions of A   symmetry.
 There are   201 symmetry adapted basis functions of A   symmetry.
   201 basis functions,   330 primitive gaussians,   201 cartesian basis functions
    35 alpha electrons       34 beta electrons
       nuclear repulsion energy       459.0010962781 Hartrees.
 NAtoms=   15 NActive=   15 NUniq=   15 SFac= 1.00D+00 NAtFMM=   60 NAOKFM=F Big=F
 Integral buffers will be    131072 words long.
 Raffenetti 2 integral format.
 Two-electron integral symmetry is turned on.
 ------------------------------------------------------------------------------
 Polarizable Continuum Model (PCM)
 =================================
 Model                : PCM.
 Atomic radii         : SMD-Coulomb.
 Polarization charges : Total charges.
 Charge compensation  : None.
 Solution method      : Matrix inversion.
 Cavity type          : VdW (van der Waals Surface) (Alpha=1.000).
 Cavity algorithm     : GePol (No added spheres)
                        Default sphere list used, NSphG=   15.
                        Lebedev-Laikov grids with approx.  5.0 points / Ang**2.
                        Smoothing algorithm: York/Karplus (Gamma=1.0000).
                        Polarization charges: spherical gaussians, with
                                              point-specific exponents (IZeta= 3).
                        Self-potential: point-specific (ISelfS= 7).
                        Self-field    : sphere-specific E.n sum rule (ISelfD= 2).
 1st derivatives      : Analytical E(r).r(x)/FMM algorithm (CHGder, D1EAlg=3).
                        Cavity 1st derivative terms included.
 Solvent              : Water, Eps=  78.355300 Eps(inf)=   1.777849
 ------------------------------------------------------------------------------
 Spheres list:
 ISph  on   Nord     Re0    Alpha      Xe            Ye            Ze
    1   N      1    1.8900  1.000     -0.389574     -1.003660     -0.076115
    2   N      2    1.8900  1.000     -0.336991      0.364909     -0.004881
    3   C      3    1.8500  1.000     -1.610603      0.889568      0.044661
    4   C      4    1.8500  1.000     -2.491179     -0.181160      0.026598
    5   C      5    1.8500  1.000     -1.692304     -1.326197     -0.041773
    6   H      6    1.2000  1.000     -1.767507      1.954289      0.100054
    7   H      7    1.2000  1.000     -3.569580     -0.135105      0.057224
    8   C      8    1.8500  1.000      0.853797      1.107831     -0.015331
    9   O      9    1.5200  1.000      0.737483      2.349859      0.048646
   10   O     10    1.5200  1.000      1.964419      0.469555     -0.097786
   11   H     11    1.2000  1.000      0.841859     -1.761362      0.008470
   12   H     12    1.2000  1.000     -1.986109     -2.366185     -0.075473
   13   O     13    1.5200  1.000      1.912190     -1.939572     -0.004885
   14   H     14    1.2000  1.000      2.097732     -0.874117     -0.014292
   15   H     15    1.2000  1.000      2.198552     -2.325255      0.838259
 ------------------------------------------------------------------------------
 ------------------------------------------------------------------------------
 Atomic radii for non-electrostatic terms: SMD-CDS.
 ------------------------------------------------------------------------------
 Nuclear repulsion after PCM non-electrostatic terms =      459.0100808586 Hartrees.
 One-electron integrals computed using PRISM.
 NBasis=   201 RedAO= T EigKep=  3.45D-05  NBF=   201
 NBsUse=   201 1.00D-06 EigRej= -1.00D+00 NBFU=   201
 Initial guess from the checkpoint file:  "/scratch/gongke2021/bizuo-TS/Gau-31685.chk"
 B after Tr=     0.000000    0.000000   -0.000000
         Rot=    0.999994    0.000614   -0.000072   -0.003512 Ang=   0.41 deg.
 Initial guess <Sx>= 0.0000 <Sy>= 0.0000 <Sz>= 0.5000 <S**2>= 0.7593 S= 0.5046
 ExpMin= 4.38D-02 ExpMax= 5.48D+03 ExpMxC= 8.25D+02 IAcc=2 IRadAn=         4 AccDes= 0.00D+00
 Harris functional with IExCor= 1009 and IRadAn=       4 diagonalized for initial guess.
 HarFok:  IExCor= 1009 AccDes= 0.00D+00 IRadAn=         4 IDoV= 1 UseB2=F ITyADJ=14
 ICtDFT=  3500011 ScaDFX=  1.000000  1.000000  1.000000  1.000000
 FoFCou: FMM=F IPFlag=           0 FMFlag=      100000 FMFlg1=           0
         NFxFlg=           0 DoJE=T BraDBF=F KetDBF=T FulRan=T
         wScrn=  0.000000 ICntrl=       500 IOpCl=  0 I1Cent=   200000004 NGrid=           0
         NMat0=    1 NMatS0=      1 NMatT0=    0 NMatD0=    1 NMtDS0=    0 NMtDT0=    0
 Petite list used in FoFCou.
 Requested convergence on RMS density matrix=1.00D-08 within 128 cycles.
 Requested convergence on MAX density matrix=1.00D-06.
 Requested convergence on             energy=1.00D-06.
 No special actions if energy rises.
 Inv3:  Mode=1 IEnd=     4085667.
 Iteration    1 A*A^-1 deviation from unit magnitude is 2.66D-15 for    774.
 Iteration    1 A*A^-1 deviation from orthogonality  is 2.00D-15 for    836    366.
 Iteration    1 A^-1*A deviation from unit magnitude is 3.11D-15 for     12.
 Iteration    1 A^-1*A deviation from orthogonality  is 1.97D-15 for    678    118.
 Error on total polarization charges =  0.06764
 SCF Done:  E(UM062X) =  -491.122806578     A.U. after   17 cycles
            NFock= 17  Conv=0.48D-08     -V/T= 2.0079
 <Sx>= 0.0000 <Sy>= 0.0000 <Sz>= 0.5000 <S**2>= 0.7604 S= 0.5052
 <L.S>=  0.00000000000    
 SMD-CDS (non-electrostatic) energy       (kcal/mol) =       5.64
 (included in total energy above)
 Annihilation of the first spin contaminant:
 S**2 before annihilation     0.7604,   after     0.7501
 D1PCM: PCM CHGder 1st derivatives, ID1Alg=3 FixD1E=F DoIter=F DoCFld=F I1PDM=0.
 Calling FoFJK, ICntrl=      2127 FMM=F ISym2X=0 I1Cent= 0 IOpClX= 1 NMat=1 NMatS=1 NMatT=0.
 ***** Axes restored to original set *****
 -------------------------------------------------------------------
 Center     Atomic                   Forces (Hartrees/Bohr)
 Number     Number              X              Y              Z
 -------------------------------------------------------------------
      1        7          -0.027360427    0.017455034   -0.001070125
      2        7          -0.036402331   -0.019490463   -0.000247926
      3        6           0.013435181   -0.019437724    0.001456362
      4        6           0.001106991    0.014250583   -0.000378542
      5        6           0.028390329    0.003196492    0.000512885
      6        1           0.000307040    0.000685382   -0.000023321
      7        1           0.000697668    0.000210668    0.000051741
      8        6           0.035863700    0.023536197    0.000566454
      9        8          -0.002554590   -0.022990615    0.000938833
     10        8          -0.021581872    0.009266959   -0.001295564
     11        1           0.013200456   -0.006927110   -0.000814801
     12        1           0.000556904    0.000052107   -0.000058789
     13        8          -0.007704661    0.010251025    0.001122053
     14        1           0.002034890   -0.009723111   -0.000111193
     15        1           0.000010723   -0.000335423   -0.000648066
 -------------------------------------------------------------------
 Cartesian Forces:  Max     0.036402331 RMS     0.013131731

 GradGradGradGradGradGradGradGradGradGradGradGradGradGradGradGradGradGrad
 Berny optimization.
 FormGI is forming the generalized inverse of G from B-inverse, IUseBI=4.
 Internal  Forces:  Max     0.024849387 RMS     0.006507975
 Search for a saddle point.
 Step number   2 out of a maximum of   83
 All quantities printed in internal units (Hartrees-Bohrs-Radians)
 Swapping is turned off.
 Update second derivatives using D2CorX and points    1    2
 ITU=  0  0
     Eigenvalues ---   -0.01218  -0.00260   0.00131   0.00162   0.00213
     Eigenvalues ---    0.00289   0.00709   0.01114   0.01492   0.01683
     Eigenvalues ---    0.01804   0.03465   0.04915   0.05031   0.05484
     Eigenvalues ---    0.07051   0.07887   0.09033   0.10173   0.10353
     Eigenvalues ---    0.11150   0.16420   0.21759   0.23020   0.23966
     Eigenvalues ---    0.26572   0.30854   0.33069   0.35043   0.36558
     Eigenvalues ---    0.38044   0.38567   0.38785   0.43441   0.49291
     Eigenvalues ---    0.52232   0.57073   0.60016   0.77455
 Eigenvectors required to have negative eigenvalues:
                          R3        R13       R14       A24       A20
   1                    0.68227  -0.48917  -0.38235   0.21477  -0.21448
                          R15       A3        A22       A23       A21
   1                    0.19013   0.04627  -0.04463   0.04160   0.04008
 RFO step:  Lambda0=1.203875925D-03 Lambda=-1.10511626D-02.
 Linear search not attempted -- option 19 set.
 Maximum step size (   0.300) exceeded in Quadratic search.
    -- Step size scaled by   0.590
 Iteration  1 RMS(Cart)=  0.05763060 RMS(Int)=  0.01582222
 Iteration  2 RMS(Cart)=  0.01247794 RMS(Int)=  0.00183899
 Iteration  3 RMS(Cart)=  0.00046847 RMS(Int)=  0.00177621
 Iteration  4 RMS(Cart)=  0.00000142 RMS(Int)=  0.00177621
 Iteration  5 RMS(Cart)=  0.00000000 RMS(Int)=  0.00177621
 Variable       Old X    -DE/DX   Delta X   Delta X   Delta X     New X
                                 (Linear)    (Quad)   (Total)
    R1        2.59163   0.01778   0.00000   0.02671   0.02667   2.61830
    R2        2.53696   0.02485   0.00000   0.02543   0.02616   2.56312
    R3        2.73697  -0.00706   0.00000   0.00114   0.00225   2.73922
    R4        2.60468   0.02072   0.00000   0.02649   0.02604   2.63071
    R5        2.65237  -0.01566   0.00000  -0.04182  -0.04294   2.60943
    R6        2.61998   0.01406   0.00000   0.01113   0.01046   2.63044
    R7        2.03645  -0.00063   0.00000  -0.00141  -0.00141   2.03504
    R8        2.64155  -0.00370   0.00000  -0.01199  -0.01190   2.62965
    R9        2.04056   0.00069   0.00000   0.00121   0.00121   2.04177
   R10        2.04321   0.00021   0.00000  -0.00011  -0.00011   2.04310
   R11        2.36046   0.02271   0.00000   0.01607   0.01607   2.37653
   R12        2.42569   0.02046   0.00000   0.03400   0.03318   2.45887
   R13        2.55651  -0.00245   0.00000  -0.22809  -0.22814   2.32837
   R14        2.05063   0.00798   0.00000   0.00085   0.00208   2.05271
   R15        2.04380   0.00731   0.00000   0.10067   0.10088   2.14467
   R16        1.83376  -0.00068   0.00000  -0.00285  -0.00285   1.83091
    A1        1.85004  -0.00120   0.00000  -0.00846  -0.01070   1.83934
    A2        2.07879  -0.00007   0.00000  -0.02851  -0.03487   2.04393
    A3        2.34321   0.00124   0.00000   0.01125   0.00465   2.34786
    A4        1.92441  -0.00459   0.00000  -0.00209  -0.00011   1.92430
    A5        2.16560   0.00112   0.00000   0.00125  -0.00225   2.16335
    A6        2.19288   0.00347   0.00000   0.00053   0.00199   2.19487
    A7        1.86758  -0.00068   0.00000  -0.00632  -0.00703   1.86054
    A8        2.10885   0.00073   0.00000   0.00221   0.00252   2.11137
    A9        2.30665  -0.00005   0.00000   0.00392   0.00426   2.31091
   A10        1.84447   0.00594   0.00000   0.01153   0.01132   1.85579
   A11        2.21554  -0.00273   0.00000  -0.00665  -0.00655   2.20899
   A12        2.22317  -0.00321   0.00000  -0.00487  -0.00477   2.21840
   A13        1.93802   0.00054   0.00000   0.00502   0.00613   1.94415
   A14        2.08745   0.00027   0.00000  -0.00430  -0.00486   2.08259
   A15        2.25768  -0.00081   0.00000  -0.00073  -0.00127   2.25641
   A16        2.03412   0.00491   0.00000   0.02336   0.02539   2.05951
   A17        2.06160   0.00073   0.00000   0.00937   0.00537   2.06698
   A18        2.18743  -0.00564   0.00000  -0.03277  -0.03082   2.15661
   A19        2.18361  -0.00305   0.00000  -0.06057  -0.06342   2.12019
   A20        2.74875   0.00104   0.00000  -0.02819  -0.02726   2.72149
   A21        1.57833  -0.00119   0.00000  -0.03423  -0.03340   1.54493
   A22        1.92373   0.00033   0.00000  -0.00556  -0.00590   1.91783
   A23        1.92674   0.00018   0.00000   0.01117   0.01143   1.93817
   A24        2.86535   0.00145   0.00000   0.10721   0.10450   2.96984
    D1       -0.02241   0.00028   0.00000  -0.01375  -0.01266  -0.03506
    D2       -3.13896   0.00012   0.00000  -0.00117  -0.00027  -3.13923
    D3       -3.02639   0.00027   0.00000   0.14241   0.14101  -2.88538
    D4        0.14024   0.00012   0.00000   0.15499   0.15340   0.29364
    D5        0.01884  -0.00017   0.00000   0.01177   0.01119   0.03002
    D6       -3.13058  -0.00001   0.00000   0.01021   0.01051  -3.12007
    D7        2.99230  -0.00038   0.00000  -0.18419  -0.18739   2.80491
    D8       -0.15712  -0.00022   0.00000  -0.18575  -0.18806  -0.34518
    D9       -0.26651  -0.00016   0.00000  -0.13604  -0.13604  -0.40255
   D10        3.06025   0.00013   0.00000   0.07768   0.07764   3.13789
   D11        0.01751  -0.00015   0.00000   0.01069   0.00961   0.02712
   D12       -3.13790  -0.00010   0.00000  -0.00156  -0.00194  -3.13983
   D13        3.13358  -0.00004   0.00000  -0.00212  -0.00312   3.13046
   D14       -0.02182   0.00001   0.00000  -0.01437  -0.01467  -0.03649
   D15        3.13480   0.00005   0.00000  -0.01709  -0.01508   3.11973
   D16        0.00111   0.00009   0.00000  -0.01209  -0.00938  -0.00827
   D17        0.02211  -0.00001   0.00000  -0.00253  -0.00071   0.02140
   D18       -3.11158   0.00003   0.00000   0.00247   0.00498  -3.10660
   D19       -0.00558   0.00001   0.00000  -0.00327  -0.00254  -0.00812
[...]
 ! D28   D(9,8,10,14)          157.637          -DE/DX =    0.0                 !
 ! D29   D(8,10,14,13)          33.0674         -DE/DX =    0.0                 !
 ! D30   D(1,11,13,14)           5.6581         -DE/DX =    0.0                 !
 ! D31   D(1,11,13,15)         113.3561         -DE/DX =    0.0                 !
 ! D32   D(11,13,14,10)         -7.8155         -DE/DX =    0.0                 !
 ! D33   D(15,13,14,10)       -114.9307         -DE/DX =    0.0                 !
 --------------------------------------------------------------------------------
 GradGradGradGradGradGradGradGradGradGradGradGradGradGradGradGradGradGrad


 ----------------------------------------------------------------------

 Electric dipole moment (input orientation):
 (Debye = 10**-18 statcoulomb cm , SI units = C m)
                  (au)            (Debye)         (10**-30 SI)
   Tot        0.318411D+01      0.809320D+01      0.269960D+02
   x          0.241625D+01      0.614150D+01      0.204859D+02
   y          0.179775D+01      0.456943D+01      0.152420D+02
   z          0.103362D+01      0.262721D+01      0.876341D+01

 Dipole polarizability, Alpha (input orientation).
 (esu units = cm**3 , SI units = C**2 m**2 J**-1)
 Alpha(0;0):
               (au)            (10**-24 esu)      (10**-40 SI)
   iso        0.133783D+03      0.198246D+02      0.220579D+02
   aniso      0.888768D+02      0.131702D+02      0.146538D+02
   xx         0.160423D+03      0.237723D+02      0.264502D+02
   yx         0.191004D+02      0.283039D+01      0.314923D+01
   yy         0.161578D+03      0.239434D+02      0.266407D+02
   zx         0.452569D+01      0.670638D+00      0.746186D+00
   zy        -0.499901D+01     -0.740777D+00     -0.824225D+00
   zz         0.793479D+02      0.117581D+02      0.130827D+02

 ----------------------------------------------------------------------

 Dipole orientation:
     7          0.24385533          1.64286508          1.40754764
     7          0.62184315         -0.54217383         -0.02926723
     6          1.97214884         -2.32413730          1.39292082
     6          2.32658824         -1.26344262          3.78067168
     6          1.22876344          1.11284969          3.75266529
     1          2.48393037         -4.12172392          0.58825547
     1          3.28999823         -2.14155040          5.35289674
     6         -0.12527286         -0.80332769         -2.47343655
     8          0.45043332         -2.74553253         -3.69920449
     8         -1.42549442          1.08144824         -3.52550514
     1         -1.67832109          2.84511528          0.82794771
     1          1.09640397          2.51328233          5.23209375
     8         -3.45988937          3.79912795         -0.35811156
     1         -2.42492807          2.29388181         -2.23601812
     1         -5.03099914          3.07220537          0.22323930

 Electric dipole moment (dipole orientation):
 (Debye = 10**-18 statcoulomb cm , SI units = C m)
                  (au)            (Debye)         (10**-30 SI)
   Tot        0.318411D+01      0.809320D+01      0.269960D+02
   x          0.000000D+00      0.000000D+00      0.000000D+00
   y          0.000000D+00      0.000000D+00      0.000000D+00
   z          0.318411D+01      0.809320D+01      0.269960D+02

 Dipole polarizability, Alpha (dipole orientation).
 (esu units = cm**3 , SI units = C**2 m**2 J**-1)
 Alpha(0;0):
               (au)            (10**-24 esu)      (10**-40 SI)
   iso        0.133783D+03      0.198246D+02      0.220579D+02
   aniso      0.888768D+02      0.131702D+02      0.146538D+02
   xx         0.100536D+03      0.148979D+02      0.165761D+02
   yx        -0.231891D+02     -0.343628D+01     -0.382337D+01
   yy         0.131802D+03      0.195310D+02      0.217311D+02
   zx         0.220596D+02      0.326890D+01      0.363714D+01
   zy         0.208199D+02      0.308520D+01      0.343274D+01
   zz         0.169012D+03      0.250450D+02      0.278663D+02

 ----------------------------------------------------------------------
 1\1\GINC-NODE7\Freq\UM062X\6-31+G(d,p)\C4H6N2O3(1-,2)\GONGKE2021\06-No
 v-2023\0\\#N Geom=AllCheck Guess=TCheck SCRF=Check GenChk UM062X/6-31+
 G(d,p) Freq\\Title Card Required\\-1,2\N,0.356970467,1.0389505036,-0.3
 46978843\N,0.267057865,-0.3330409963,-0.0927504641\C,1.5470771893,-0.8
 552934515,0.1417230496\C,2.4303865725,0.2236553139,0.0926548971\C,1.68
 40194806,1.3580561966,-0.1812821441\H,1.684718177,-1.9056260293,0.3350
 552293\H,3.5002185354,0.1756470393,0.2382171992\C,-0.8932186533,-1.040
 3563259,-0.1345706699\O,-0.8808027923,-2.2855565198,0.0039623994\O,-2.
 0272270052,-0.3747813476,-0.3562944277\H,-0.6565338917,1.677882692,-0.
 0338657361\H,1.9988130485,2.3854598468,-0.2924062545\O,-1.8290222062,2
 .0118050418,0.1927728718\H,-2.015896063,0.668738925,-0.0956913514\H,-1
 .9411157236,2.1623121114,1.1407252444\\Version=ES64L-G16RevA.03\State=
 2-A\HF=-491.1326597\S2=0.762739\S2-1=0.\S2A=0.75009\RMSD=1.371e-09\RMS
 F=1.872e-05\ZeroPoint=0.101336\Thermal=0.1095738\Dipole=2.4162537,1.79
 77508,1.0336222\DipoleDeriv=-1.2270031,1.6174617,-0.1696173,0.140691,-
 0.8098627,-0.0283919,0.1865755,0.3428093,-0.4680721,-0.9125332,-0.4485
 64,-0.017824,-0.4287428,-0.3588432,-0.0599333,-0.1103886,-0.135556,-0.
 0136861,-0.15943,-0.4942527,0.0911962,0.5653234,-0.4269437,0.04423,-0.
 008816,-0.0856496,-0.4470783,-0.1643004,0.2945561,-0.0110491,-0.020893
 3,0.6076263,-0.0976151,-0.0163758,-0.0952956,-0.2586186,0.3327952,-0.7
 152909,0.2470846,-0.1218718,-0.5566592,-0.0330522,0.1196963,-0.2192223
 ,-0.2064985,0.0840672,-0.0334607,-0.0243688,-0.0005732,0.0753398,0.044
 3734,-0.0481757,0.0553514,0.3365161,-0.0329071,-0.0108946,-0.0327275,0
 .0042557,0.1782777,0.0090321,-0.0359606,0.0156464,0.2419485,3.2512436,
 0.3538325,0.204826,1.0589023,3.6866125,-0.2331878,0.3189434,-0.2691308
 ,0.595962,-0.9891409,0.0063726,-0.0162495,-1.5146117,-3.0744799,0.0997
 181,0.1501992,0.2688255,-0.7387369,-2.1729115,0.1163105,-0.0934505,1.1
 082412,-1.6193068,-0.0320403,-0.3640118,-0.1785244,-0.6873054,1.939233
 2,-1.2957427,-0.2752838,-0.7979787,0.9199693,0.1052432,-0.4148884,0.17
 57911,0.4537905,0.0959844,-0.0418524,-0.01989,-0.0445314,0.0251387,0.0
 331683,-0.005573,0.0537513,0.2661532,-1.8231553,0.6709422,0.1426045,0.
 4745771,-1.798311,-0.1749607,0.2643238,-0.2942841,-0.8094413,0.3792969
 ,-0.0255536,-0.002301,-0.4270002,1.7349894,0.3157297,-0.0266908,0.3663
 651,0.4886047,0.3987611,0.006136,-0.0229498,0.0042122,0.4164529,0.0076
 864,-0.0088575,-0.0008772,0.2464622\Polar=160.4232369,19.1003921,161.5
 783954,4.5256928,-4.9990105,79.347876\Quadrupole=-0.3721538,-6.9972496
 ,7.3694033,-1.9020547,-2.7963474,2.5924562\PG=C01 [X(C4H6N2O3)]\NImag=
 1\\0.62086923,-0.00113704,0.45638675,0.01046919,-0.02635866,0.08033396
 ,-0.12306851,0.04608325,-0.00932074,0.79640152,-0.02519608,-0.22640666
 ,0.02492660,0.09956994,0.65441209,0.00579450,0.04125821,-0.03737722,0.
 07473388,-0.07679299,0.09844526,-0.00527838,0.01682377,-0.00340589,-0.
 22094383,0.06960896,-0.03506640,0.51500634,0.03170824,-0.03669617,0.00
 813525,0.04438295,-0.13731134,0.02328124,0.02687757,0.82682664,-0.0046
 0740,0.00822942,-0.00645357,-0.02874834,0.02608587,-0.03944190,0.05294
 917,-0.12093339,0.08489068,-0.07839938,0.01244858,-0.01333277,-0.06498
 173,-0.00731474,-0.00806698,-0.20241255,-0.12296004,-0.00095495,0.8611
 9004,0.01694681,-0.00224043,0.00388544,-0.03528510,0.00550639,-0.00344
 191,-0.09905110,-0.22499397,0.01609169,-0.03141844,0.55302973,-0.01728
 944,0.00579998,0.01316819,-0.00344332,-0.00121541,0.00586451,-0.004961
 42,0.01274097,-0.04710333,0.10296098,-0.07469957,0.13498211,-0.3056904
 3,-0.07630853,-0.02001990,-0.03971770,-0.03513051,-0.00282329,0.028521
 59,0.00148447,-0.00133845,-0.18079966,0.12864249,-0.03543222,0.6023107
 6,-0.00845682,-0.11174911,0.00341109,-0.04448000,-0.05124763,0.0003874
 8,-0.04173801,-0.09530211,0.01120592,0.14247309,-0.25167349,0.04893129
 ,0.03556261,0.83407625,-0.03816151,-0.00935353,-0.04084068,0.00204812,
 0.00645196,-0.00096127,0.00687257,0.01622154,0.02097387,-0.03686913,0.
 04815103,-0.07270179,0.06384410,-0.10530819,0.12090438,-0.00407890,0.0
 0156617,-0.00007244,-0.00070651,0.02883871,-0.00476888,-0.05856942,0.0
 3026831,-0.01156511,0.01144660,-0.01477514,0.00422856,-0.00473849,-0.0
 0420758,-0.00034075,0.05440112,-0.00045789,0.00032728,-0.00008119,-0.0
 0085187,-0.00366531,-0.00021472,0.04191002,-0.36203447,0.06452191,0.00
 585442,-0.00601196,0.00159699,-0.00074061,-0.00043632,0.00052275,-0.04
 292498,0.37344613,-0.00158924,0.00019740,0.00291431,0.00045298,0.00311
 321,-0.00571196,-0.01332008,0.06441307,-0.01787439,0.00046686,-0.00173
 101,-0.00130467,0.00009144,0.00028735,0.00232027,0.01281116,-0.0661948
 1,0.02071721,-0.00014791,0.00105433,-0.00053594,-0.00116024,-0.0014133
 1,-0.00063082,-0.00719736,0.00526387,-0.00164533,-0.35897340,0.0131229
 0,-0.04485431,-0.00582940,-0.00452499,-0.00009697,0.00007337,-0.000098
 29,0.00033961,0.37301838,0.00314387,-0.00470868,0.00133402,-0.00445871
 ,-0.00484617,0.00087576,-0.01957099,0.00977052,-0.00399329,0.01205250,
 -0.05789442,0.00601594,0.02331586,0.00902629,0.00196902,0.00116368,0.0
 0002038,-0.00022135,-0.01389835,0.04663020,-0.00137050,0.00268438,0.00
 656862,0.00002589,0.00078901,0.00464047,0.00178051,-0.00101786,-0.0002
 7647,-0.04438554,0.00624437,-0.03564641,-0.00437851,-0.00167230,-0.000
 64360,0.00012699,-0.00041166,-0.00218724,0.04754761,-0.00565104,0.0295
 1058,-0.00451994,-0.00408080,0.00117713,-0.27936289,-0.10086421,-0.011
 39919,-0.03910434,-0.01501075,-0.00393053,0.00035830,0.00723289,-0.000
 41179,0.00760715,0.00905787,0.00092682,0.00178420,-0.00027350,0.000471
 56,0.00081806,-0.00006641,-0.00005293,0.62957658,-0.04838066,-0.007224
 09,-0.00862802,-0.08285130,-0.17186490,0.01501436,0.00593767,0.0111479
 0,-0.00283445,0.00637032,-0.00211351,0.00136114,0.01423888,-0.00015531
 ,0.00376515,0.00208076,-0.00234165,0.00085087,0.00134630,0.00140183,0.
 00014293,0.01296851,0.81761798,0.00558798,0.00624958,-0.00088346,-0.02
 394258,0.00457003,-0.04988656,-0.00211721,-0.00624679,0.00373040,-0.00
 098275,0.00171648,-0.00073187,0.00120778,0.00074728,-0.00339567,0.0001
 0533,0.00006744,-0.00076158,-0.00013734,-0.00008532,0.00094228,0.05525
 967,-0.07228663,0.16997797,-0.00667349,0.00207169,-0.00355704,-0.00625
 640,-0.05308558,0.00485372,0.00535431,-0.00040377,0.00149177,-0.000217
 35,-0.00261215,0.00022301,0.00168690,-0.00240814,0.00067945,-0.0005426
 9,-0.00269420,0.00030101,-0.00015486,-0.00010388,0.00002425,-0.0900606
 4,-0.00205127,-0.00415267,0.10359119,0.01489370,-0.02255611,0.01070175
 ,-0.01544706,-0.06170398,0.00029454,-0.01215979,0.01648090,-0.00176891
 ,0.00023519,-0.00229634,-0.00052901,-0.01307741,-0.00696683,-0.0031767
 2,-0.00169941,0.00037492,-0.00062043,-0.00089622,-0.00007239,-0.000067
 85,0.00329908,-0.48648246,0.04982643,-0.00022679,0.61493729,-0.0030940
 9,0.00319315,0.00201513,0.00151417,0.00248136,0.01472924,0.00190796,-0
 .00166736,-0.00416398,-0.00008193,-0.00050231,-0.00002512,0.00133842,0
 .00116515,0.00223511,0.00015946,-0.00030961,0.00064679,0.00007660,-0.0
 0001234,-0.00000286,-0.00527132,0.04621471,-0.06562035,0.00740400,-0.0
 6501062,0.03651591,0.01846110,-0.00691274,0.00519257,-0.06284021,0.026
 59319,-0.01649517,-0.00881878,-0.00232410,-0.00043298,-0.00206289,0.00
 328682,-0.00109193,-0.00866327,-0.00461323,-0.00206679,-0.00088033,0.0
 0001922,-0.00029262,-0.00076852,-0.00063349,0.00014052,-0.23679904,0.0
 5888675,-0.03777933,-0.00281391,0.03238368,-0.00354009,0.34957015,-0.0
 1710573,0.01503574,-0.00528667,-0.01471449,0.00514623,0.00252694,0.010
 83226,-0.00686379,0.00214909,-0.00266979,-0.00042259,0.00019036,0.0084
 8161,0.00426160,0.00190353,0.00019563,0.00052773,0.00001395,0.00017660
 ,-0.00002239,-0.00001372,0.06856637,-0.13803343,0.00926374,0.06490912,
 -0.06119990,0.01673064,-0.09424767,0.41981789,0.00402034,-0.00376278,-
 0.00044346,-0.00361123,0.00459407,0.00757985,-0.00408518,0.00264972,0.
 00334361,0.00033063,0.00042246,0.00111387,-0.00291444,-0.00109545,-0.0
 0016827,-0.00011516,-0.00006412,-0.00031454,-0.00007211,-0.00004621,-0
 .00027251,-0.03983313,0.00976496,-0.05289305,-0.00386179,0.00658893,0.
 01167366,0.06436086,0.03956795,0.06063678,-0.01230651,-0.00711229,0.00
 362570,0.01742522,0.00324283,-0.00878440,-0.00371318,-0.00739769,0.001
 06557,0.00887202,-0.00188736,0.00286372,-0.02418118,-0.00928755,-0.004
 24777,0.00128576,-0.00032695,0.00065369,0.00066633,-0.00058675,0.00087
 741,0.02041878,0.01019088,0.00363724,-0.00327553,-0.01461298,0.0008591
 5,-0.01248587,0.02262387,0.00142102,-0.00057597,-0.01690352,-0.0528528
 2,-0.00055422,0.01210832,-0.01724573,-0.00177446,-0.00031942,0.0009197
 8,-0.00035063,-0.00811725,-0.00062558,-0.00158014,0.00537679,0.0167693
 8,0.00642652,0.00021160,0.00008362,-0.00032110,-0.00042382,0.00093159,
 -0.00106476,-0.00457110,-0.00880080,-0.00109631,0.00059240,0.00729170,
 -0.00021791,0.00485364,-0.00579349,-0.00029098,0.04677536,0.07509728,0
 .01488518,-0.01221895,-0.02170994,-0.01007957,0.00450801,-0.00119816,0
 .00088636,0.00333681,-0.00060183,-0.00348379,-0.00025418,0.00038400,-0
 .00453209,0.00881022,-0.00259698,-0.00092853,0.00040057,0.00014672,-0.
 00054414,0.00086525,0.00026717,-0.00369696,-0.00131610,0.00070064,0.00
 113655,0.00066916,-0.00010870,0.00127200,-0.00367989,-0.00163090,0.018
 74550,-0.00626944,0.05957963,-0.00313260,-0.02932044,0.00479121,-0.007
 04169,-0.00182037,-0.00128449,-0.00359513,0.00337186,-0.00151448,0.012
 23600,0.01511631,-0.00080581,-0.08118656,-0.07879887,0.00243455,0.0011
 3317,0.00038452,-0.00011132,0.00003549,-0.00105460,0.00061405,0.002278
 18,-0.00028412,0.00038204,-0.00064079,-0.00150393,0.00003408,-0.000509
 44,0.00028707,-0.00008654,0.00049550,0.00012100,0.00004932,0.08011291,
 -0.00081525,-0.00104063,-0.00030979,0.00050111,0.00181379,0.00016370,0
 .00314981,-0.00090040,0.00113493,-0.01025884,-0.01050544,0.00057765,-0
 .08573261,-0.33862463,0.03587754,-0.00070795,-0.00020625,0.00011758,0.
 00025310,0.00028324,-0.00050673,0.00039202,0.00022830,0.00011450,-0.00
 025125,-0.00001676,0.00001620,-0.00006556,-0.00009204,0.00001745,0.000
 47853,-0.00058831,-0.00029131,0.09361182,0.34942961,-0.00112630,-0.005
 42911,-0.00299780,-0.00096428,0.00051306,0.00270895,-0.00135236,0.0011
 1552,0.00299682,0.00267970,0.00385975,0.00191124,0.00529545,0.03742502
 ,-0.02509155,0.00006141,0.00028281,0.00134242,0.00038522,-0.00068603,-
 0.00305630,-0.00006435,-0.00030207,0.00059243,-0.00005470,0.00036359,0
 .00028492,0.00015039,-0.00011864,0.00005575,-0.00094211,0.00016765,-0.
 00041904,-0.00452146,-0.03707802,0.02171796,-0.09140757,0.04416819,0.0
 2439566,-0.00698198,-0.00566847,0.00453757,0.00188793,0.00387356,-0.00
 027488,-0.00713000,0.00073057,-0.00203590,0.01241846,0.01168039,0.0056
 1444,-0.00064011,0.00018923,-0.00033136,-0.00042217,0.00065297,-0.0009
 8943,-0.01328187,-0.00814604,-0.00427209,0.00249988,0.00792134,-0.0001
 8747,0.01888634,-0.01796299,-0.00145528,0.01328563,-0.02851125,-0.0314
 4867,-0.00025236,-0.00058428,0.00041794,0.11502784,0.03372921,0.000523
 31,-0.01007803,0.00161227,0.00245442,0.00164467,0.00155825,-0.00114808
 ,0.00016571,0.00274864,-0.00019820,0.00071727,-0.00120114,-0.00404951,
 -0.00204102,0.00018850,0.00004307,0.00016490,0.00024522,-0.00020991,0.
 00038922,-0.02578182,0.01044609,-0.00677271,0.00594383,-0.00943798,0.0
 0284693,0.01344500,-0.09188807,-0.02433823,-0.00449065,-0.01875048,0.0
 0274980,0.00019367,0.00015725,-0.00011838,-0.03385119,0.10156722,0.025
 30314,-0.00985049,0.00544296,0.00350465,-0.00077793,-0.00001353,-0.000
 13328,-0.00136118,0.00022611,0.00196812,0.00021017,0.00013173,-0.00030
 614,-0.00391327,0.00026407,0.00030863,-0.00009625,0.00003940,0.0002271
 2,-0.00030630,0.00008746,-0.00511324,0.00200235,-0.00121782,0.00165733
 ,-0.00363099,0.00060953,0.00285020,-0.02721661,0.00438760,-0.01358511,
 0.00562176,-0.03490942,0.00006856,0.00017454,-0.00002436,-0.06779240,0
 .09407857,0.56098996,0.00095795,-0.00152023,0.00139905,-0.00016534,0.0
 0247303,-0.00053168,-0.00122567,0.00062654,-0.00043196,0.00123792,0.00
 001179,0.00007081,-0.00160353,-0.00114254,-0.00047585,0.00009260,-0.00
 002419,0.00006202,0.00008487,-0.00003556,0.00005838,0.00119602,0.02979
 994,0.00712177,-0.00274816,0.00089304,-0.00115194,-0.05111966,-0.02685
 484,-0.01420129,-0.01297250,-0.01047071,-0.00045669,0.00007639,0.00007
 019,0.00002737,-0.01769152,-0.00158235,0.00217337,0.08431851,0.0168060
 6,-0.00756999,-0.00120964,-0.00619068,0.00504168,-0.00310954,-0.003894
 40,0.00006226,0.00027786,0.00049347,0.00038648,0.00011044,-0.00521996,
 -0.00368256,-0.00152954,-0.00018994,-0.00012099,-0.00006273,-0.0002155
 2,-0.00028873,0.00015738,0.05012609,-0.02361390,0.01413532,-0.01002887
 ,0.01197046,-0.00502451,-0.03076781,-0.13503822,-0.03510345,-0.0369145
 2,0.00561741,0.00632432,-0.00029307,0.00006248,0.00000134,0.01766540,0
 .03362023,0.01682029,0.00541998,0.10873917,0.00288965,-0.00149169,-0.0
 0063246,-0.00221395,0.00110805,0.00067019,0.00009629,-0.00073604,-0.00
 028049,-0.00013083,-0.00002229,0.00002824,-0.00034519,-0.00041465,-0.0
 0033464,0.00000520,-0.00001605,0.00003961,-0.00004170,-0.00006054,0.00
 009462,0.01139426,0.00694970,-0.00059737,-0.00603788,0.00598423,0.0012
 8947,-0.01231398,-0.03863210,-0.03395336,-0.00765938,0.00211823,0.0052
 3184,-0.00004786,-0.00000154,-0.00004006,0.01038708,0.02575150,-0.0216
 8364,0.00663197,0.01073427,0.05278385,-0.00558465,0.00217607,-0.000805
 77,-0.00059971,0.00016661,-0.00006838,0.00008847,0.00023899,-0.0000621
 1,-0.00036391,-0.00006130,-0.00002092,-0.00013465,0.00088377,-0.000161
 29,-0.00006037,0.00003506,-0.00000571,-0.00004266,0.00007987,-0.000018
 70,-0.00090855,-0.00010662,0.00008217,0.00025155,-0.00000246,0.0000329
 9,0.00084434,-0.00251701,0.00010330,0.00706152,-0.00072204,0.01819552,
 -0.00000908,-0.00004085,0.00000809,-0.02619852,0.00724258,0.04886907,-
 0.00043789,0.00320378,-0.00261368,0.02609410,0.00122510,0.00077161,0.0
 0011206,0.00002138,-0.00008289,-0.00011328,0.00003539,0.00004233,0.000
 01827,0.00006290,0.00005333,-0.00001792,0.00030804,-0.00024603,0.00011
 995,-0.00000835,-0.00000620,-0.00000690,0.00000818,-0.00002138,-0.0000
 0136,-0.00099425,-0.00021206,-0.00020303,0.00034886,-0.00032252,0.0000
 9651,0.00009630,-0.00543528,0.00109568,-0.00069474,-0.00205354,-0.0036
 3426,-0.00001085,-0.00000023,0.00000352,0.00784257,-0.02312936,-0.0717
 5466,0.00233590,0.00481422,-0.01127108,-0.01057644,0.02582800,-0.00171
 149,0.00085308,0.00089543,0.00004431,-0.00035491,-0.00004787,-0.000051
 02,0.00006849,0.00003447,-0.00011763,0.00006989,-0.00007069,0.00031304
 ,0.00003307,0.00003675,-0.00001587,-0.00000407,-0.00001236,-0.00001748
 ,0.00000242,-0.00002579,0.00054400,-0.00069891,0.00004401,-0.00010700,
 0.00037589,-0.00007874,0.00004635,0.00260144,0.00088497,0.00146978,-0.
 00081421,-0.00313505,-0.00000187,-0.00000670,0.00001861,0.06343479,-0.
 08516021,-0.51433005,-0.00029533,-0.00252181,-0.00261580,-0.06353457,0
 .08555652,0.51840211\\0.00004966,-0.00001261,-0.00000295,-0.00005127,-
 0.00002098,0.00000054,-0.00000101,-0.00000144,-0.00000351,-0.00000229,
 0.00000670,0.00001165,0.00000601,0.,0.00000583,-0.00000147,0.00000094,
 0.00000442,-0.00000107,0.00000181,0.00001726,0.00003936,0.00002922,-0.
 00001662,0.00000022,0.00000297,-0.00001220,0.00000913,-0.00005249,-0.0
 0002217,-0.00000655,-0.00000239,0.00000765,-0.00000014,0.00000304,0.00
 002117,-0.00002707,0.00001071,0.00000192,-0.00000271,0.00004050,-0.000
 00872,-0.00001082,-0.00000598,-0.00000428\\\@


 Until you make peace with who you are,
 you'll never be content with what you have.
                           -- Doris Mortman
 Job cpu time:       0 days  1 hours 11 minutes 22.4 seconds.
 Elapsed time:       0 days  0 hours  2 minutes 59.3 seconds.
 File lengths (MBytes):  RWF=    162 Int=      0 D2E=      0 Chk=     12 Scr=      1
 Normal termination of Gaussian 16 at Mon Nov  6 00:12:55 2023.
