 Entering Gaussian System, Link 0=/opt/soft/g16/g16
 Initial command:
 /opt/soft/g16/l1.exe "/scratch/gongke2021/bizuo/Gau-22315.inp" -scrdir="/scratch/gongke2021/bizuo/"
 Entering Link 1 = /opt/soft/g16/l1.exe PID=     22316.
  
 Copyright (c) 1988,1990,1992,1993,1995,1998,2003,2009,2016,
            Gaussian, Inc.  All Rights Reserved.
  
 This is part of the Gaussian(R) 16 program.  It is based on
 the Gaussian(R) 09 system (copyright 2009, Gaussian, Inc.),
 the Gaussian(R) 03 system (copyright 2003, Gaussian, Inc.),
 the Gaussian(R) 98 system (copyright 1998, Gaussian, Inc.),
 the Gaussian(R) 94 system (copyright 1995, Gaussian, Inc.),
 the Gaussian 92(TM) system (copyright 1992, Gaussian, Inc.),
 the Gaussian 90(TM) system (copyright 1990, Gaussian, Inc.),
 the Gaussian 88(TM) system (copyright 1988, Gaussian, Inc.),
 the Gaussian 86(TM) system (copyright 1986, Carnegie Mellon
 University), and the Gaussian 82(TM) system (copyright 1983,
 Carnegie Mellon University). Gaussian is a federally registered
 trademark of Gaussian, Inc.
  
 This software contains proprietary and confidential information,
 including trade secrets, belonging to Gaussian, Inc.
  
 This software is provided under written license and may be
 used, copied, transmitted, or stored only in accord with that
 written license.
  
 The following legend is applicable only to US Government
 contracts under FAR:
  
                    RESTRICTED RIGHTS LEGEND
  
 Use, reproduction and disclosure by the US Government is
 subject to restrictions as set forth in subparagraphs (a)
 and (c) of the Commercial Computer Software - Restricted
 Rights clause in FAR 52.227-19.
  
 Gaussian, Inc.
 340 Quinnipiac St., Bldg. 40, Wallingford CT 06492
  
  
 ---------------------------------------------------------------
 Warning -- This program may not be used in any manner that
 competes with the business of Gaussian, Inc. or will provide
 assistance to any competitor of Gaussian, Inc.  The licensee
 of this program is prohibited from giving any competitor of
 Gaussian, Inc. access to this program.  By using this program,
 the user acknowledges that Gaussian, Inc. is engaged in the
 business of creating and licensing software in the field of
 computational chemistry and represents and warrants to the
 licensee that it is not a competitor of Gaussian, Inc. and that
 it will not use this program in any manner prohibited above.
 ---------------------------------------------------------------
  

 Cite this work as:
 Gaussian 16, Revision A.03,
 M. J. Frisch, G. W. Trucks, H. B. Schlegel, G. E. Scuseria, 
 M. A. Robb, J. R. Cheeseman, G. Scalmani, V. Barone, 
 G. A. Petersson, H. Nakatsuji, X. Li, M. Caricato, A. V. Marenich, 
 J. Bloino, B. G. Janesko, R. Gomperts, B. Mennucci, H. P. Hratchian, 
 J. V. Ortiz, A. F. Izmaylov, J. L. Sonnenberg, D. Williams-Young, 
 F. Ding, F. Lipparini, F. Egidi, J. Goings, B. Peng, A. Petrone, 
 T. Henderson, D. Ranasinghe, V. G. Zakrzewski, J. Gao, N. Rega, 
 G. Zheng, W. Liang, M. Hada, M. Ehara, K. Toyota, R. Fukuda, 
 J. Hasegawa, M. Ishida, T. Nakajima, Y. Honda, O. Kitao, H. Nakai, 
 T. Vreven, K. Throssell, J. A. Montgomery, Jr., J. E. Peralta, 
 F. Ogliaro, M. J. Bearpark, J. J. Heyd, E. N. Brothers, K. N. Kudin, 
 V. N. Staroverov, T. A. Keith, R. Kobayashi, J. Normand, 
 K. Raghavachari, A. P. Rendell, J. C. Burant, S. S. Iyengar, 
 J. Tomasi, M. Cossi, J. M. Millam, M. Klene, C. Adamo, R. Cammi, 
 J. W. Ochterski, R. L. Martin, K. Morokuma, O. Farkas, 
 J. B. Foresman, and D. J. Fox, Gaussian, Inc., Wallingford CT, 2016.
 
 ******************************************
 Gaussian 16:  ES64L-G16RevA.03 25-Dec-2016
                 5-Nov-2023 
 ******************************************
 %mem=10GB
 %nprocshared=24
 Will use up to   24 processors via shared memory.
 -----------------------------------------------------
 # opt freq 6-31+g(d,p) scrf=(smd,solvent=water) m062x
 -----------------------------------------------------
 1/18=20,19=15,26=3,38=1/1,3;
 2/9=110,12=2,17=6,18=5,40=1/2;
 3/5=1,6=6,7=111,11=2,25=1,30=1,70=32201,71=1,72=1,74=-55/1,2,3;
 4//1;
 5/5=2,38=5,53=1/2;
 6/7=2,8=2,9=2,10=2,28=1/1;
 7//1,2,3,16;
 1/18=20,19=15,26=3/3(2);
 2/9=110/2;
 99//99;
 2/9=110/2;
 3/5=1,6=6,7=111,11=2,25=1,30=1,70=32205,71=1,72=1,74=-55/1,2,3;
 4/5=5,16=3,69=1/1;
 5/5=2,38=5,53=1/2;
 7//1,2,3,16;
 1/18=20,19=15,26=3/3(-5);
 2/9=110/2;
 6/7=2,8=2,9=2,10=2,19=2,28=1/1;
 99/9=1/99;
 -------------------
 Title Card Required
 -------------------
 Symbolic Z-matrix:
 Charge = -1 Multiplicity = 2
 N                     1.19198   0.786    -0.00342 
 N                     0.44983  -0.3229    0.12592 
 C                     1.32379  -1.32888   0.09301 
 C                     2.64302  -0.85595  -0.05808 
 C                     2.509     0.52002  -0.11664 
 H                     0.97435  -2.34931   0.1786 
 H                     3.55549  -1.42987  -0.11625 
 C                    -0.78861  -0.5563   -0.05683 
 O                    -0.98929  -1.88601   0.1048 
 O                    -1.58031   0.33958  -0.22509 
 H                     0.71394   1.6878   -0.0068 
 H                     3.23495   1.3122   -0.22825 
 O                    -0.90258   2.76359   0.02323 
 H                    -1.5683    2.06276   0.0799 
 H                    -0.99607   3.26638   0.84304 
 
 Add virtual bond connecting atoms H14        and O10        Dist= 3.31D+00.

 GradGradGradGradGradGradGradGradGradGradGradGradGradGradGradGradGradGrad
 Berny optimization.
 Initialization pass.
                           ----------------------------
                           !    Initial Parameters    !
                           ! (Angstroms and Degrees)  !
 --------------------------                            --------------------------
 ! Name  Definition              Value          Derivative Info.                !
 --------------------------------------------------------------------------------
 ! R1    R(1,2)                  1.3406         estimate D2E/DX2                !
 ! R2    R(1,5)                  1.3484         estimate D2E/DX2                !
 ! R3    R(1,11)                 1.0207         estimate D2E/DX2                !
 ! R4    R(2,3)                  1.333          estimate D2E/DX2                !
 ! R5    R(2,8)                  1.2734         estimate D2E/DX2                !
 ! R6    R(3,4)                  1.4096         estimate D2E/DX2                !
 ! R7    R(3,6)                  1.082          estimate D2E/DX2                !
 ! R8    R(4,5)                  1.3837         estimate D2E/DX2                !
 ! R9    R(4,7)                  1.0795         estimate D2E/DX2                !
 ! R10   R(5,12)                 1.0803         estimate D2E/DX2                !
 ! R11   R(8,9)                  1.3545         estimate D2E/DX2                !
 ! R12   R(8,10)                 1.2073         estimate D2E/DX2                !
 ! R13   R(10,14)                1.75           estimate D2E/DX2                !
 ! R14   R(13,14)                0.9683         estimate D2E/DX2                !
 ! R15   R(13,15)                0.9662         estimate D2E/DX2                !
 ! A1    A(2,1,5)              112.6852         estimate D2E/DX2                !
 ! A2    A(2,1,11)             118.1559         estimate D2E/DX2                !
 ! A3    A(5,1,11)             129.1586         estimate D2E/DX2                !
 ! A4    A(1,2,3)              105.0053         estimate D2E/DX2                !
 ! A5    A(1,2,8)              132.5435         estimate D2E/DX2                !
 ! A6    A(3,2,8)              119.7199         estimate D2E/DX2                !
 ! A7    A(2,3,4)              111.2882         estimate D2E/DX2                !
 ! A8    A(2,3,6)              119.8707         estimate D2E/DX2                !
 ! A9    A(4,3,6)              128.8411         estimate D2E/DX2                !
 ! A10   A(3,4,5)              104.331          estimate D2E/DX2                !
 ! A11   A(3,4,7)              128.2058         estimate D2E/DX2                !
 ! A12   A(5,4,7)              127.4631         estimate D2E/DX2                !
 ! A13   A(1,5,4)              106.6902         estimate D2E/DX2                !
 ! A14   A(1,5,12)             121.3595         estimate D2E/DX2                !
 ! A15   A(4,5,12)             131.9503         estimate D2E/DX2                !
 ! A16   A(2,8,9)              107.8725         estimate D2E/DX2                !
 ! A17   A(2,8,10)             121.448          estimate D2E/DX2                !
 ! A18   A(9,8,10)             130.3866         estimate D2E/DX2                !
 ! A19   A(8,10,14)            134.5761         estimate D2E/DX2                !
 ! A20   A(14,13,15)           105.0971         estimate D2E/DX2                !
 ! A21   A(10,14,13)           135.0095         estimate D2E/DX2                !
 ! D1    D(5,1,2,3)             -0.0434         estimate D2E/DX2                !
 ! D2    D(5,1,2,8)           -160.543          estimate D2E/DX2                !
 ! D3    D(11,1,2,3)           179.7961         estimate D2E/DX2                !
 ! D4    D(11,1,2,8)            19.2965         estimate D2E/DX2                !
 ! D5    D(2,1,5,4)              0.0067         estimate D2E/DX2                !
 ! D6    D(2,1,5,12)           179.9805         estimate D2E/DX2                !
 ! D7    D(11,1,5,4)          -179.8108         estimate D2E/DX2                !
 ! D8    D(11,1,5,12)            0.163          estimate D2E/DX2                !
 ! D9    D(1,2,3,4)              0.0633         estimate D2E/DX2                !
 ! D10   D(1,2,3,6)           -179.9364         estimate D2E/DX2                !
 ! D11   D(8,2,3,4)            163.6125         estimate D2E/DX2                !
 ! D12   D(8,2,3,6)            -16.3873         estimate D2E/DX2                !
 ! D13   D(1,2,8,9)            174.5972         estimate D2E/DX2                !
 ! D14   D(1,2,8,10)           -11.0101         estimate D2E/DX2                !
 ! D15   D(3,2,8,9)             16.391          estimate D2E/DX2                !
 ! D16   D(3,2,8,10)          -169.2163         estimate D2E/DX2                !
 ! D17   D(2,3,4,5)             -0.0599         estimate D2E/DX2                !
 ! D18   D(2,3,4,7)            179.9693         estimate D2E/DX2                !
 ! D19   D(6,3,4,5)            179.9399         estimate D2E/DX2                !
 ! D20   D(6,3,4,7)             -0.031          estimate D2E/DX2                !
 ! D21   D(3,4,5,1)              0.0308         estimate D2E/DX2                !
 ! D22   D(3,4,5,12)          -179.9391         estimate D2E/DX2                !
 ! D23   D(7,4,5,1)           -179.998          estimate D2E/DX2                !
 ! D24   D(7,4,5,12)             0.032          estimate D2E/DX2                !
 ! D25   D(2,8,10,14)          -17.8828         estimate D2E/DX2                !
 ! D26   D(9,8,10,14)          155.1044         estimate D2E/DX2                !
 ! D27   D(8,10,14,13)          37.0413         estimate D2E/DX2                !
 ! D28   D(15,13,14,10)       -134.1416         estimate D2E/DX2                !
 --------------------------------------------------------------------------------
 Trust Radius=3.00D-01 FncErr=1.00D-07 GrdErr=1.00D-06 EigMax=2.50D+02 EigMin=1.00D-04
 Number of steps in this run=     74 maximum allowed number of steps=    100.
 GradGradGradGradGradGradGradGradGradGradGradGradGradGradGradGradGradGrad

                          Input orientation:                          
 ---------------------------------------------------------------------
 Center     Atomic      Atomic             Coordinates (Angstroms)
 Number     Number       Type             X           Y           Z
 ---------------------------------------------------------------------
      1          7           0        1.191984    0.785995   -0.003423
      2          7           0        0.449833   -0.322904    0.125924
      3          6           0        1.323785   -1.328884    0.093005
      4          6           0        2.643024   -0.855954   -0.058080
      5          6           0        2.509004    0.520024   -0.116643
      6          1           0        0.974350   -2.349313    0.178596
      7          1           0        3.555492   -1.429874   -0.116248
      8          6           0       -0.788608   -0.556296   -0.056825
      9          8           0       -0.989287   -1.886011    0.104798
     10          8           0       -1.580307    0.339578   -0.225091
     11          1           0        0.713944    1.687797   -0.006795
     12          1           0        3.234954    1.312200   -0.228250
     13          8           0       -0.902581    2.763594    0.023232
     14          1           0       -1.568298    2.062755    0.079895
     15          1           0       -0.996071    3.266375    0.843036
 ---------------------------------------------------------------------
                    Distance matrix (angstroms):
                    1          2          3          4          5
     1  N    0.000000
     2  N    1.340588   0.000000
     3  C    2.121175   1.332993   0.000000
     4  C    2.191917   2.264528   1.409568   0.000000
     5  C    1.348370   2.238203   2.206163   1.383729   0.000000
     6  H    3.148119   2.093854   1.081992   2.251801   3.267327
     7  H    3.241755   3.305926   2.243770   1.079521   2.212971
     8  C    2.393186   1.273422   2.254228   3.444691   3.469335
     9  O    3.450981   2.124810   2.379250   3.779051   4.251597
    10  O    2.816739   2.164154   3.364328   4.392461   4.094726
    11  H    1.020676   2.032311   3.079323   3.192906   2.144295
    12  H    2.121595   3.248985   3.275835   2.253937   1.080279
    13  O    2.880766   3.371356   4.659394   5.067450   4.085595
    14  H    3.042403   3.125114   4.457301   5.125732   4.363833
    15  H    3.414142   3.935456   5.201988   5.572129   4.555105
                    6          7          8          9         10
     6  H    0.000000
     7  H    2.755829   0.000000
     8  C    2.525541   4.431464   0.000000
     9  O    2.018902   4.572957   1.354451   0.000000
    10  O    3.730867   5.433161   1.207349   2.326237   0.000000
    11  H    4.049745   4.219745   2.701132   3.960499   2.670006
    12  H    4.322329   2.763016   4.439562   5.308831   4.912509
    13  O    5.448745   6.122013   3.322810   4.651129   2.529195
    14  H    5.093245   6.204043   2.736062   3.991068   1.750000
    15  H    5.988321   6.609970   3.932633   5.205009   3.169916
                   11         12         13         14         15
    11  H    0.000000
    12  H    2.558438   0.000000
    13  O    1.942008   4.391923   0.000000
    14  H    2.314463   4.871295   0.968279   0.000000
    15  H    2.477554   4.782053   0.966234   1.535750   0.000000
 Stoichiometry    C4H6N2O3(1-,2)
 Framework group  C1[X(C4H6N2O3)]
 Deg. of freedom    39
 Full point group                 C1      NOp   1
 Largest Abelian subgroup         C1      NOp   1
 Largest concise Abelian subgroup C1      NOp   1
                         Standard orientation:                         
 ---------------------------------------------------------------------
 Center     Atomic      Atomic             Coordinates (Angstroms)
 Number     Number       Type             X           Y           Z
 ---------------------------------------------------------------------
      1          7           0       -0.263104   -1.079491    0.007218
      2          7           0       -0.305092    0.255210    0.125476
      3          6           0       -1.601620    0.563573    0.097212
      4          6           0       -2.399271   -0.590513   -0.039606
      5          6           0       -1.489153   -1.631371   -0.094442
      6          1           0       -1.911521    1.597253    0.175771
      7          1           0       -3.475570   -0.655985   -0.091182
      8          6           0        0.564545    1.164699   -0.069884
      9          8           0       -0.046000    2.363776    0.084993
     10          8           0        1.728951    0.896216   -0.242413
     11          1           0        0.650736   -1.534085    0.002578
     12          1           0       -1.618390   -2.699047   -0.196265
     13          8           0        2.591486   -1.466706    0.021144
     14          1           0        2.724661   -0.508820    0.068930
     15          1           0        2.964948   -1.813962    0.841843
 ---------------------------------------------------------------------
 Rotational constants (GHZ):           2.2136845           1.5519496           0.9201252
 Standard basis: 6-31+G(d,p) (6D, 7F)
 There are   201 symmetry adapted cartesian basis functions of A   symmetry.
 There are   201 symmetry adapted basis functions of A   symmetry.
   201 basis functions,   330 primitive gaussians,   201 cartesian basis functions
    35 alpha electrons       34 beta electrons
       nuclear repulsion energy       461.3228340588 Hartrees.
 NAtoms=   15 NActive=   15 NUniq=   15 SFac= 1.00D+00 NAtFMM=   60 NAOKFM=F Big=F
 Integral buffers will be    131072 words long.
 Raffenetti 2 integral format.
 Two-electron integral symmetry is turned on.
 ------------------------------------------------------------------------------
 Polarizable Continuum Model (PCM)
 =================================
 Model                : PCM.
 Atomic radii         : SMD-Coulomb.
 Polarization charges : Total charges.
 Charge compensation  : None.
 Solution method      : On-the-fly selection.
 Cavity type          : VdW (van der Waals Surface) (Alpha=1.000).
 Cavity algorithm     : GePol (No added spheres)
                        Default sphere list used, NSphG=   15.
                        Lebedev-Laikov grids with approx.  5.0 points / Ang**2.
                        Smoothing algorithm: York/Karplus (Gamma=1.0000).
                        Polarization charges: spherical gaussians, with
                                              point-specific exponents (IZeta= 3).
                        Self-potential: point-specific (ISelfS= 7).
                        Self-field    : sphere-specific E.n sum rule (ISelfD= 2).
 1st derivatives      : Analytical E(r).r(x)/FMM algorithm (CHGder, D1EAlg=3).
                        Cavity 1st derivative terms included.
 Solvent              : Water, Eps=  78.355300 Eps(inf)=   1.777849
 ------------------------------------------------------------------------------
 Spheres list:
 ISph  on   Nord     Re0    Alpha      Xe            Ye            Ze
    1   N      1    1.8900  1.000     -0.263104     -1.079491      0.007218
    2   N      2    1.8900  1.000     -0.305092      0.255210      0.125476
    3   C      3    1.8500  1.000     -1.601620      0.563573      0.097212
    4   C      4    1.8500  1.000     -2.399271     -0.590513     -0.039606
    5   C      5    1.8500  1.000     -1.489153     -1.631371     -0.094442
    6   H      6    1.2000  1.000     -1.911521      1.597253      0.175771
    7   H      7    1.2000  1.000     -3.475570     -0.655985     -0.091182
    8   C      8    1.8500  1.000      0.564545      1.164699     -0.069884
    9   O      9    1.5200  1.000     -0.046000      2.363776      0.084993
   10   O     10    1.5200  1.000      1.728951      0.896216     -0.242413
   11   H     11    1.2000  1.000      0.650736     -1.534085      0.002578
   12   H     12    1.2000  1.000     -1.618390     -2.699047     -0.196265
   13   O     13    1.5200  1.000      2.591486     -1.466706      0.021144
   14   H     14    1.2000  1.000      2.724661     -0.508820      0.068930
   15   H     15    1.2000  1.000      2.964948     -1.813962      0.841843
 ------------------------------------------------------------------------------
 ------------------------------------------------------------------------------
 Atomic radii for non-electrostatic terms: SMD-CDS.
 ------------------------------------------------------------------------------
 Nuclear repulsion after PCM non-electrostatic terms =      461.3315488657 Hartrees.
 One-electron integrals computed using PRISM.
 NBasis=   201 RedAO= T EigKep=  3.16D-05  NBF=   201
 NBsUse=   201 1.00D-06 EigRej= -1.00D+00 NBFU=   201
 ExpMin= 4.38D-02 ExpMax= 5.48D+03 ExpMxC= 8.25D+02 IAcc=3 IRadAn=         5 AccDes= 0.00D+00
 Harris functional with IExCor= 1009 and IRadAn=       5 diagonalized for initial guess.
 HarFok:  IExCor= 1009 AccDes= 0.00D+00 IRadAn=         5 IDoV= 1 UseB2=F ITyADJ=14
 ICtDFT=  3500011 ScaDFX=  1.000000  1.000000  1.000000  1.000000
 FoFCou: FMM=F IPFlag=           0 FMFlag=      100000 FMFlg1=           0
         NFxFlg=           0 DoJE=T BraDBF=F KetDBF=T FulRan=T
         wScrn=  0.000000 ICntrl=       500 IOpCl=  0 I1Cent=   200000004 NGrid=           0
         NMat0=    1 NMatS0=      1 NMatT0=    0 NMatD0=    1 NMtDS0=    0 NMtDT0=    0
 Petite list used in FoFCou.
 Initial guess <Sx>= 0.0000 <Sy>= 0.0000 <Sz>= 0.5000 <S**2>= 0.7500 S= 0.5000
 Requested convergence on RMS density matrix=1.00D-08 within 128 cycles.
 Requested convergence on MAX density matrix=1.00D-06.
 Requested convergence on             energy=1.00D-06.
 No special actions if energy rises.
 Inv3:  Mode=1 IEnd=     4198467.
 Iteration    1 A*A^-1 deviation from unit magnitude is 2.89D-15 for    611.
 Iteration    1 A*A^-1 deviation from orthogonality  is 2.00D-15 for    975    729.
 Iteration    1 A^-1*A deviation from unit magnitude is 2.44D-15 for    195.
 Iteration    1 A^-1*A deviation from orthogonality  is 2.55D-15 for   1081   1005.
 Error on total polarization charges =  0.06802
 SCF Done:  E(UM062X) =  -491.093871870     A.U. after   17 cycles
            NFock= 17  Conv=0.95D-08     -V/T= 2.0067
 <Sx>= 0.0000 <Sy>= 0.0000 <Sz>= 0.5000 <S**2>= 0.7624 S= 0.5062
 <L.S>=  0.00000000000    
 SMD-CDS (non-electrostatic) energy       (kcal/mol) =       5.47
 (included in total energy above)
 Annihilation of the first spin contaminant:
 S**2 before annihilation     0.7624,   after     0.7501

 **********************************************************************

            Population analysis using the SCF density.

 **********************************************************************

 Orbital symmetries:
 Alpha Orbitals:
       Occupied  (A) (A) (A) (A) (A) (A) (A) (A) (A) (A) (A) (A)
                 (A) (A) (A) (A) (A) (A) (A) (A) (A) (A) (A) (A)
                 (A) (A) (A) (A) (A) (A) (A) (A) (A) (A) (A)
       Virtual   (A) (A) (A) (A) (A) (A) (A) (A) (A) (A) (A) (A)
                 (A) (A) (A) (A) (A) (A) (A) (A) (A) (A) (A) (A)
                 (A) (A) (A) (A) (A) (A) (A) (A) (A) (A) (A) (A)
                 (A) (A) (A) (A) (A) (A) (A) (A) (A) (A) (A) (A)
                 (A) (A) (A) (A) (A) (A) (A) (A) (A) (A) (A) (A)
                 (A) (A) (A) (A) (A) (A) (A) (A) (A) (A) (A) (A)
                 (A) (A) (A) (A) (A) (A) (A) (A) (A) (A) (A) (A)
                 (A) (A) (A) (A) (A) (A) (A) (A) (A) (A) (A) (A)
                 (A) (A) (A) (A) (A) (A) (A) (A) (A) (A) (A) (A)
                 (A) (A) (A) (A) (A) (A) (A) (A) (A) (A) (A) (A)
                 (A) (A) (A) (A) (A) (A) (A) (A) (A) (A) (A) (A)
                 (A) (A) (A) (A) (A) (A) (A) (A) (A) (A) (A) (A)
                 (A) (A) (A) (A) (A) (A) (A) (A) (A) (A) (A) (A)
                 (A) (A) (A) (A) (A) (A) (A) (A) (A) (A)
 Beta  Orbitals:
       Occupied  (A) (A) (A) (A) (A) (A) (A) (A) (A) (A) (A) (A)
                 (A) (A) (A) (A) (A) (A) (A) (A) (A) (A) (A) (A)
                 (A) (A) (A) (A) (A) (A) (A) (A) (A) (A)
       Virtual   (A) (A) (A) (A) (A) (A) (A) (A) (A) (A) (A) (A)
                 (A) (A) (A) (A) (A) (A) (A) (A) (A) (A) (A) (A)
                 (A) (A) (A) (A) (A) (A) (A) (A) (A) (A) (A) (A)
                 (A) (A) (A) (A) (A) (A) (A) (A) (A) (A) (A) (A)
                 (A) (A) (A) (A) (A) (A) (A) (A) (A) (A) (A) (A)
                 (A) (A) (A) (A) (A) (A) (A) (A) (A) (A) (A) (A)
                 (A) (A) (A) (A) (A) (A) (A) (A) (A) (A) (A) (A)
                 (A) (A) (A) (A) (A) (A) (A) (A) (A) (A) (A) (A)
                 (A) (A) (A) (A) (A) (A) (A) (A) (A) (A) (A) (A)
                 (A) (A) (A) (A) (A) (A) (A) (A) (A) (A) (A) (A)
                 (A) (A) (A) (A) (A) (A) (A) (A) (A) (A) (A) (A)
                 (A) (A) (A) (A) (A) (A) (A) (A) (A) (A) (A) (A)
                 (A) (A) (A) (A) (A) (A) (A) (A) (A) (A) (A) (A)
                 (A) (A) (A) (A) (A) (A) (A) (A) (A) (A) (A)
 The electronic state is 2-A.
 Alpha  occ. eigenvalues --  -19.63596 -19.60433 -19.57437 -14.82807 -14.81312
 Alpha  occ. eigenvalues --  -10.65746 -10.56892 -10.54708 -10.53766  -1.23001
 Alpha  occ. eigenvalues --   -1.15352  -1.12188  -1.06033  -0.95806  -0.88787
 Alpha  occ. eigenvalues --   -0.76137  -0.69161  -0.67699  -0.61530  -0.58441
 Alpha  occ. eigenvalues --   -0.56583  -0.53748  -0.52850  -0.49563  -0.47612
 Alpha  occ. eigenvalues --   -0.46842  -0.46061  -0.44683  -0.39589  -0.35984
 Alpha  occ. eigenvalues --   -0.35220  -0.32857  -0.31921  -0.30896  -0.13761
 Alpha virt. eigenvalues --    0.02776   0.04534   0.04892   0.05790   0.06619
 Alpha virt. eigenvalues --    0.07385   0.07638   0.07835   0.09929   0.11205
 Alpha virt. eigenvalues --    0.11917   0.12874   0.13171   0.13872   0.15277
 Alpha virt. eigenvalues --    0.15981   0.17721   0.18157   0.19425   0.20358
 Alpha virt. eigenvalues --    0.21542   0.22502   0.22882   0.23557   0.24167
 Alpha virt. eigenvalues --    0.24774   0.25734   0.26174   0.27225   0.27460
 Alpha virt. eigenvalues --    0.28201   0.29139   0.30290   0.30418   0.31140
 Alpha virt. eigenvalues --    0.31268   0.32943   0.34144   0.35898   0.36374
 Alpha virt. eigenvalues --    0.38074   0.38804   0.40923   0.41591   0.43073
 Alpha virt. eigenvalues --    0.44367   0.46765   0.47576   0.51206   0.54061
 Alpha virt. eigenvalues --    0.56548   0.69585   0.72932   0.75039   0.77175
 Alpha virt. eigenvalues --    0.78869   0.80398   0.84001   0.85900   0.87267
 Alpha virt. eigenvalues --    0.91622   0.94688   0.95501   0.97882   0.98046
 Alpha virt. eigenvalues --    1.00222   1.02851   1.03183   1.05377   1.09278
 Alpha virt. eigenvalues --    1.09384   1.14337   1.16275   1.17191   1.19138
 Alpha virt. eigenvalues --    1.20739   1.22578   1.25020   1.26746   1.28807
 Alpha virt. eigenvalues --    1.30435   1.32622   1.33731   1.35818   1.37073
 Alpha virt. eigenvalues --    1.39067   1.42032   1.42510   1.43705   1.43911
 Alpha virt. eigenvalues --    1.45791   1.49002   1.54190   1.58023   1.58311
 Alpha virt. eigenvalues --    1.60640   1.61733   1.64186   1.67775   1.72002
 Alpha virt. eigenvalues --    1.79014   1.84734   1.85915   1.87950   1.91116
 Alpha virt. eigenvalues --    1.91991   1.93882   1.96114   1.99010   2.00040
 Alpha virt. eigenvalues --    2.03188   2.05036   2.08030   2.10773   2.16599
 Alpha virt. eigenvalues --    2.17983   2.18822   2.22519   2.24674   2.28237
 Alpha virt. eigenvalues --    2.30044   2.33290   2.37632   2.40648   2.41195
 Alpha virt. eigenvalues --    2.43365   2.46920   2.48749   2.53060   2.54366
 Alpha virt. eigenvalues --    2.55970   2.57994   2.60297   2.62476   2.65561
 Alpha virt. eigenvalues --    2.69721   2.75154   2.79195   2.80289   2.82487
 Alpha virt. eigenvalues --    2.88576   2.89741   2.93507   2.97104   3.01164
 Alpha virt. eigenvalues --    3.11040   3.12981   3.17623   3.21956   3.27474
 Alpha virt. eigenvalues --    3.31346   3.38822   3.48130   3.53449   3.64693
 Alpha virt. eigenvalues --    3.71590   3.86619   4.18460   4.23347   4.34198
 Alpha virt. eigenvalues --    4.43379   4.48367   4.55361   4.69063   4.77139
 Alpha virt. eigenvalues --    4.82730
  Beta  occ. eigenvalues --  -19.63596 -19.60278 -19.57394 -14.82710 -14.80978
  Beta  occ. eigenvalues --  -10.65642 -10.56662 -10.54396 -10.53868  -1.22327
  Beta  occ. eigenvalues --   -1.14782  -1.12169  -1.05626  -0.95017  -0.88040
  Beta  occ. eigenvalues --   -0.75238  -0.68800  -0.66879  -0.61370  -0.56949
  Beta  occ. eigenvalues --   -0.55824  -0.53319  -0.52348  -0.49395  -0.46999
  Beta  occ. eigenvalues --   -0.45842  -0.45556  -0.44138  -0.39527  -0.35002
  Beta  occ. eigenvalues --   -0.33609  -0.31205  -0.30928  -0.29548
  Beta virt. eigenvalues --    0.00862   0.02210   0.04177   0.04467   0.04836
  Beta virt. eigenvalues --    0.06245   0.07089   0.07210   0.08625   0.09160
  Beta virt. eigenvalues --    0.10336   0.10761   0.12061   0.12836   0.14052
  Beta virt. eigenvalues --    0.14586   0.15522   0.17422   0.18228   0.19223
  Beta virt. eigenvalues --    0.20517   0.20983   0.22182   0.22615   0.23425
  Beta virt. eigenvalues --    0.24116   0.24640   0.25658   0.26045   0.27187
  Beta virt. eigenvalues --    0.27555   0.27934   0.28875   0.30026   0.30491
  Beta virt. eigenvalues --    0.31169   0.31194   0.33038   0.33919   0.35643
  Beta virt. eigenvalues --    0.36050   0.37855   0.38653   0.40446   0.41666
  Beta virt. eigenvalues --    0.42942   0.44285   0.46635   0.47764   0.51654
  Beta virt. eigenvalues --    0.54278   0.56857   0.69884   0.73535   0.75931
  Beta virt. eigenvalues --    0.78393   0.79120   0.81309   0.84643   0.86079
  Beta virt. eigenvalues --    0.87690   0.91943   0.95242   0.95973   0.98264
  Beta virt. eigenvalues --    0.99029   1.00433   1.03026   1.03976   1.05620
  Beta virt. eigenvalues --    1.09445   1.09580   1.14452   1.16409   1.17254
  Beta virt. eigenvalues --    1.19209   1.20981   1.22869   1.25617   1.27173
  Beta virt. eigenvalues --    1.29040   1.30684   1.33523   1.34033   1.36204
  Beta virt. eigenvalues --    1.37374   1.40148   1.42266   1.42888   1.44038
  Beta virt. eigenvalues --    1.44906   1.45864   1.50111   1.55220   1.58291
  Beta virt. eigenvalues --    1.58444   1.60875   1.62222   1.64220   1.68063
  Beta virt. eigenvalues --    1.72113   1.79284   1.85046   1.86248   1.87997
  Beta virt. eigenvalues --    1.91358   1.92159   1.94412   1.96371   1.99470
  Beta virt. eigenvalues --    2.00447   2.03673   2.05667   2.08817   2.11446
  Beta virt. eigenvalues --    2.17366   2.18520   2.19205   2.23274   2.25804
  Beta virt. eigenvalues --    2.29085   2.30577   2.33405   2.38036   2.41109
  Beta virt. eigenvalues --    2.41509   2.44484   2.47772   2.49606   2.53663
  Beta virt. eigenvalues --    2.54954   2.56690   2.59226   2.60559   2.63151
  Beta virt. eigenvalues --    2.66214   2.69760   2.75728   2.79961   2.81270
  Beta virt. eigenvalues --    2.83223   2.89125   2.90565   2.93971   2.97980
  Beta virt. eigenvalues --    3.01689   3.11359   3.13253   3.18429   3.22451
  Beta virt. eigenvalues --    3.27982   3.31901   3.39741   3.48172   3.54007
  Beta virt. eigenvalues --    3.64735   3.72628   3.87563   4.18474   4.23367
  Beta virt. eigenvalues --    4.34417   4.43913   4.49143   4.56860   4.69115
  Beta virt. eigenvalues --    4.78422   4.84067
          Condensed to atoms (all electrons):
               1          2          3          4          5          6
     1  N    7.880629  -0.620205   0.020821  -0.091638   0.000580   0.020363
     2  N   -0.620205   7.740293   0.103438  -0.167424   0.216980  -0.034219
     3  C    0.020821   0.103438   6.455299  -0.042764  -0.192425   0.429563
     4  C   -0.091638  -0.167424  -0.042764   5.489182   0.467341  -0.036041
     5  C    0.000580   0.216980  -0.192425   0.467341   5.479731   0.005893
     6  H    0.020363  -0.034219   0.429563  -0.036041   0.005893   0.465854
     7  H    0.006513   0.003200  -0.009377   0.349937  -0.009715  -0.001143
     8  C   -0.092925   0.285650  -0.365577  -0.023049   0.003595  -0.028300
     9  O    0.040102  -0.228745  -0.084837   0.062803  -0.014717  -0.038283
    10  O    0.015926  -0.184375   0.068850  -0.000364  -0.006335  -0.001181
    11  H    0.275577   0.013684   0.003833   0.003862  -0.008044  -0.000090
    12  H   -0.062188   0.020218   0.004583  -0.031783   0.403110  -0.000105
    13  O   -0.037228   0.015004   0.020619  -0.013030   0.006193   0.000027
    14  H   -0.006232   0.006561  -0.001734   0.000637  -0.001434  -0.000001
    15  H    0.005218  -0.004849  -0.001139   0.000889  -0.000614  -0.000000
               7          8          9         10         11         12
     1  N    0.006513  -0.092925   0.040102   0.015926   0.275577  -0.062188
     2  N    0.003200   0.285650  -0.228745  -0.184375   0.013684   0.020218
     3  C   -0.009377  -0.365577  -0.084837   0.068850   0.003833   0.004583
     4  C    0.349937  -0.023049   0.062803  -0.000364   0.003862  -0.031783
     5  C   -0.009715   0.003595  -0.014717  -0.006335  -0.008044   0.403110
     6  H   -0.001143  -0.028300  -0.038283  -0.001181  -0.000090  -0.000105
     7  H    0.458992  -0.001309  -0.000056   0.000041  -0.000103  -0.000676
     8  C   -0.001309   4.732556   0.354970   0.264797  -0.012479   0.001574
     9  O   -0.000056   0.354970   8.887386  -0.095968   0.000904   0.000102
    10  O    0.000041   0.264797  -0.095968   8.805028   0.005461   0.000079
    11  H   -0.000103  -0.012479   0.000904   0.005461   0.294097  -0.001371
    12  H   -0.000676   0.001574   0.000102   0.000079  -0.001371   0.446385
    13  O    0.000005  -0.013498  -0.001563  -0.057487   0.002718   0.000010
    14  H   -0.000000   0.004084   0.000260   0.006713  -0.001849  -0.000001
    15  H   -0.000000   0.002657  -0.000014   0.001569  -0.001429   0.000000
              13         14         15
     1  N   -0.037228  -0.006232   0.005218
     2  N    0.015004   0.006561  -0.004849
     3  C    0.020619  -0.001734  -0.001139
     4  C   -0.013030   0.000637   0.000889
     5  C    0.006193  -0.001434  -0.000614
     6  H    0.000027  -0.000001  -0.000000
     7  H    0.000005  -0.000000  -0.000000
     8  C   -0.013498   0.004084   0.002657
     9  O   -0.001563   0.000260  -0.000014
    10  O   -0.057487   0.006713   0.001569
    11  H    0.002718  -0.001849  -0.001429
    12  H    0.000010  -0.000001   0.000000
    13  O    8.429327   0.265037   0.278673
    14  H    0.265037   0.278906  -0.015228
    15  H    0.278673  -0.015228   0.304165
          Atomic-Atomic Spin Densities.
               1          2          3          4          5          6
     1  N    0.473805  -0.185619   0.219636  -0.007656  -0.256887  -0.000978
     2  N   -0.185619   0.261681  -0.287563  -0.000088   0.106568   0.004370
     3  C    0.219636  -0.287563   0.806461  -0.026827  -0.170624  -0.009130
     4  C   -0.007656  -0.000088  -0.026827  -0.167345   0.070625  -0.000087
     5  C   -0.256887   0.106568  -0.170624   0.070625   0.577341   0.001203
     6  H   -0.000978   0.004370  -0.009130  -0.000087   0.001203  -0.023363
     7  H   -0.000551  -0.000003   0.000723  -0.003617   0.004102   0.000037
     8  C   -0.097321   0.165598  -0.118813  -0.016937   0.026313   0.002261
     9  O    0.006431  -0.020972   0.032568  -0.006293  -0.004696   0.003148
    10  O    0.025108  -0.041755   0.019462  -0.000148  -0.007616   0.000282
    11  H    0.004789  -0.005328   0.001345   0.000440  -0.002232   0.000005
    12  H    0.003811  -0.002041  -0.001370   0.007313  -0.008145   0.000003
    13  O   -0.002458   0.002048  -0.000312  -0.000449   0.000402   0.000000
    14  H   -0.000182   0.000054  -0.000124  -0.000102   0.000058  -0.000000
    15  H    0.000296  -0.000395   0.000239   0.000165   0.000005  -0.000000
               7          8          9         10         11         12
     1  N   -0.000551  -0.097321   0.006431   0.025108   0.004789   0.003811
     2  N   -0.000003   0.165598  -0.020972  -0.041755  -0.005328  -0.002041
     3  C    0.000723  -0.118813   0.032568   0.019462   0.001345  -0.001370
     4  C   -0.003617  -0.016937  -0.006293  -0.000148   0.000440   0.007313
     5  C    0.004102   0.026313  -0.004696  -0.007616  -0.002232  -0.008145
     6  H    0.000037   0.002261   0.003148   0.000282   0.000005   0.000003
     7  H    0.003442  -0.000206   0.000006  -0.000002   0.000001   0.000014
     8  C   -0.000206   0.250043  -0.034986  -0.068879  -0.000247  -0.000009
     9  O    0.000006  -0.034986   0.044267   0.010705  -0.000054  -0.000009
    10  O   -0.000002  -0.068879   0.010705   0.135762  -0.000075  -0.000001
    11  H    0.000001  -0.000247  -0.000054  -0.000075  -0.008697   0.000073
    12  H    0.000014  -0.000009  -0.000009  -0.000001   0.000073  -0.015350
    13  O    0.000000   0.000303   0.000231   0.001376   0.001502   0.000027
    14  H   -0.000000  -0.000019  -0.000028   0.000401  -0.000054  -0.000000
    15  H   -0.000000  -0.000284  -0.000018  -0.000563  -0.000041  -0.000000
              13         14         15
     1  N   -0.002458  -0.000182   0.000296
     2  N    0.002048   0.000054  -0.000395
     3  C   -0.000312  -0.000124   0.000239
     4  C   -0.000449  -0.000102   0.000165
     5  C    0.000402   0.000058   0.000005
     6  H    0.000000  -0.000000  -0.000000
     7  H    0.000000  -0.000000  -0.000000
     8  C    0.000303  -0.000019  -0.000284
     9  O    0.000231  -0.000028  -0.000018
    10  O    0.001376   0.000401  -0.000563
    11  H    0.001502  -0.000054  -0.000041
    12  H    0.000027  -0.000000  -0.000000
    13  O   -0.000494   0.000360  -0.000960
    14  H    0.000360  -0.000021  -0.000285
    15  H   -0.000960  -0.000285   0.001727
 Mulliken charges and spin densities:
               1          2
     1  N   -0.355314   0.182225
     2  N   -0.165211  -0.003443
     3  C   -0.409155   0.465673
     4  C    0.031441  -0.151006
     5  C   -0.350139   0.336417
     6  H    0.217663  -0.022249
     7  H    0.203691   0.003945
     8  C    0.887255   0.106818
     9  O   -0.882343   0.030301
    10  O   -0.822754   0.074057
    11  H    0.425228  -0.008574
    12  H    0.220063  -0.015684
    13  O   -0.894807   0.001577
    14  H    0.464280   0.000058
    15  H    0.430102  -0.000116
 Sum of Mulliken charges =  -1.00000   1.00000
 Mulliken charges and spin densities with hydrogens summed into heavy atoms:
               1          2
     1  N    0.069914   0.173651
     2  N   -0.165211  -0.003443
     3  C   -0.191492   0.443425
     4  C    0.235132  -0.147061
     5  C   -0.130076   0.320733
     8  C    0.887255   0.106818
     9  O   -0.882343   0.030301
    10  O   -0.822754   0.074057
    13  O   -0.000425   0.001519
 Electronic spatial extent (au):  <R**2>=           1220.6391
 Charge=             -1.0000 electrons
 Dipole moment (field-independent basis, Debye):
    X=             -2.3353    Y=            -10.6727    Z=              2.1234  Tot=             11.1297
 Quadrupole moment (field-independent basis, Debye-Ang):
   XX=            -58.5775   YY=            -76.2551   ZZ=            -57.6649
   XY=             -3.1207   XZ=              7.9662   YZ=             -3.2034
 Traceless Quadrupole moment (field-independent basis, Debye-Ang):
   XX=              5.5883   YY=            -12.0893   ZZ=              6.5010
   XY=             -3.1207   XZ=              7.9662   YZ=             -3.2034
 Octapole moment (field-independent basis, Debye-Ang**2):
  XXX=              4.8158  YYY=            -82.0364  ZZZ=              2.7772  XYY=             -5.1672
  XXY=            -12.6082  XXZ=             20.6420  XZZ=             16.2140  YZZ=             -3.4142
  YYZ=              4.9035  XYZ=            -10.7507
 Hexadecapole moment (field-independent basis, Debye-Ang**3):
 XXXX=           -822.1444 YYYY=           -765.0224 ZZZZ=            -73.0816 XXXY=            -28.6547
 XXXZ=             69.6891 YYYX=            -18.5646 YYYZ=            -13.8796 ZZZX=              9.1077
 ZZZY=             -6.9903 XXYY=           -258.6229 XXZZ=           -166.9424 YYZZ=           -126.3174
 XXYZ=            -28.5270 YYXZ=             24.7176 ZZXY=            -15.8787
 N-N= 4.613315488657D+02 E-N=-2.085509766957D+03  KE= 4.878361806997D+02
                          Isotropic Fermi Contact Couplings
        Atom                 a.u.       MegaHertz       Gauss      10(-4) cm-1
     1  N(14)              0.03847      12.42839       4.43476       4.14566
     2  N(14)             -0.00189      -0.61012      -0.21771      -0.20352
     3  C(13)              0.06293      70.74467      25.24346      23.59788
     4  C(13)             -0.03268     -36.74406     -13.11119     -12.25650
     5  C(13)              0.04698      52.81981      18.84742      17.61879
     6  H(1)              -0.00706     -31.56277     -11.26238     -10.52821
     7  H(1)               0.00101       4.52609       1.61502       1.50974
     8  C(13)              0.02984      33.54137      11.96839      11.18820
     9  O(17)              0.00404      -2.44654      -0.87299      -0.81608
    10  O(17)              0.01687     -10.22904      -3.64998      -3.41204
    11  H(1)              -0.00437     -19.52212      -6.96598      -6.51188
    12  H(1)              -0.00502     -22.41661      -7.99880      -7.47737
    13  O(17)             -0.00098       0.59261       0.21146       0.19767
    14  H(1)              -0.00001      -0.04108      -0.01466      -0.01370
    15  H(1)               0.00007       0.32373       0.11551       0.10798
 --------------------------------------------------------
       Center         ----  Spin Dipole Couplings  ----
                      3XX-RR        3YY-RR        3ZZ-RR
 --------------------------------------------------------
     1   Atom       -0.240389     -0.232450      0.472839
     2   Atom       -0.102954     -0.095836      0.198790
     3   Atom       -0.203876     -0.191270      0.395146
     4   Atom        0.045714      0.043465     -0.089179
     5   Atom       -0.157466     -0.146780      0.304245
     6   Atom       -0.024333      0.024972     -0.000639
     7   Atom        0.001349      0.004269     -0.005618
     8   Atom       -0.053750     -0.077710      0.131460
     9   Atom       -0.049662     -0.054189      0.103851
    10   Atom       -0.130490     -0.144332      0.274821
    11   Atom        0.018781     -0.010984     -0.007797
    12   Atom       -0.024822      0.026282     -0.001460
    13   Atom       -0.001623      0.000312      0.001311
    14   Atom        0.003816      0.000324     -0.004141
    15   Atom        0.002011     -0.000350     -0.001661
 --------------------------------------------------------
                        XY            XZ            YZ
 --------------------------------------------------------
     1   Atom       -0.003704     -0.024761     -0.048935
     2   Atom        0.011418      0.019878     -0.000597
     3   Atom       -0.000326     -0.040206     -0.051949
     4   Atom       -0.001037      0.005994      0.012074
     5   Atom        0.004567     -0.009200     -0.039219
     6   Atom       -0.017671     -0.003733      0.001097
     7   Atom       -0.000981      0.000195      0.000882
     8   Atom        0.019984      0.070603      0.032993
     9   Atom        0.009732      0.021088      0.001148
    10   Atom        0.008126      0.094425      0.018130
    11   Atom       -0.021761     -0.002111     -0.001319
    12   Atom        0.005818      0.000057      0.002758
    13   Atom       -0.002467      0.000021      0.003287
    14   Atom       -0.003349      0.000518     -0.000240
    15   Atom       -0.001844      0.001090     -0.000767
 --------------------------------------------------------


 ---------------------------------------------------------------------------------
              Anisotropic Spin Dipole Couplings in Principal Axis System
 ---------------------------------------------------------------------------------

       Atom             a.u.   MegaHertz   Gauss  10(-4) cm-1        Axes

              Baa    -0.2446    -9.432    -3.366    -3.146  0.8501  0.5226  0.0650
     1 N(14)  Bbb    -0.2325    -8.967    -3.200    -2.991 -0.5256  0.8498  0.0405
              Bcc     0.4771    18.399     6.565     6.137 -0.0341 -0.0686  0.9971
 
              Baa    -0.1122    -4.328    -1.545    -1.444  0.8185 -0.5720 -0.0534
     2 N(14)  Bbb    -0.0879    -3.389    -1.209    -1.130  0.5708  0.8202 -0.0379
              Bcc     0.2001     7.717     2.754     2.574  0.0655  0.0005  0.9979
 
              Baa    -0.2078   -27.879    -9.948    -9.299  0.9498  0.2998  0.0892
     3 C(13)  Bbb    -0.1946   -26.114    -9.318    -8.711 -0.3058  0.9500  0.0628
              Bcc     0.4024    53.992    19.266    18.010 -0.0659 -0.0870  0.9940
 
              Baa    -0.0905   -12.149    -4.335    -4.053 -0.0445 -0.0900  0.9950
     4 C(13)  Bbb     0.0444     5.958     2.126     1.987  0.2972  0.9496  0.0992
              Bcc     0.0461     6.191     2.209     2.065  0.9538 -0.3001  0.0155
 
              Baa    -0.1592   -21.366    -7.624    -7.127  0.9234 -0.3835 -0.0141
     5 C(13)  Bbb    -0.1486   -19.941    -7.116    -6.652  0.3832  0.9195  0.0874
              Bcc     0.3078    41.307    14.740    13.779 -0.0205 -0.0861  0.9961
 
              Baa    -0.0304   -16.199    -5.780    -5.404  0.9477  0.3005  0.1079
     6 H(1)   Bbb    -0.0004    -0.236    -0.084    -0.079 -0.0814 -0.0994  0.9917
              Bcc     0.0308    16.436     5.865     5.482 -0.3087  0.9486  0.0697
 
              Baa    -0.0057    -3.045    -1.087    -1.016 -0.0403 -0.0919  0.9950
     7 H(1)   Bbb     0.0011     0.576     0.205     0.192  0.9587  0.2770  0.0644
              Bcc     0.0046     2.470     0.881     0.824 -0.2815  0.9565  0.0770
 
              Baa    -0.0894   -12.001    -4.282    -4.003 -0.5829  0.8099  0.0653
     8 C(13)  Bbb    -0.0718    -9.637    -3.439    -3.214  0.7464  0.5655 -0.3510
              Bcc     0.1612    21.637     7.721     7.217  0.3212  0.1558  0.9341
 
              Baa    -0.0629     4.551     1.624     1.518 -0.6698  0.7382  0.0796
     9 O(17)  Bbb    -0.0438     3.172     1.132     1.058  0.7302  0.6744 -0.1095
              Bcc     0.1067    -7.723    -2.756    -2.576  0.1345  0.0152  0.9908
 
              Baa    -0.1534    11.098     3.960     3.702  0.8809 -0.4395 -0.1756
    10 O(17)  Bbb    -0.1432    10.364     3.698     3.457  0.4209  0.8971 -0.1340
              Bcc     0.2966   -21.462    -7.658    -7.159  0.2165  0.0441  0.9753
 
              Baa    -0.0228   -12.152    -4.336    -4.053  0.4648  0.8739  0.1425
    11 H(1)   Bbb    -0.0075    -4.017    -1.433    -1.340 -0.0375 -0.1413  0.9893
              Bcc     0.0303    16.168     5.769     5.393  0.8846 -0.4652 -0.0329
 
              Baa    -0.0255   -13.594    -4.851    -4.534  0.9936 -0.1122  0.0106
    12 H(1)   Bbb    -0.0017    -0.918    -0.328    -0.306 -0.0211 -0.0936  0.9954
              Bcc     0.0272    14.512     5.178     4.841  0.1107  0.9893  0.0954
 
              Baa    -0.0041     0.299     0.107     0.100  0.6457  0.6524 -0.3967
    13 O(17)  Bbb    -0.0005     0.033     0.012     0.011  0.7149 -0.3341  0.6142
              Bcc     0.0046    -0.331    -0.118    -0.111 -0.2682  0.6802  0.6822
 
              Baa    -0.0042    -2.227    -0.795    -0.743 -0.0616  0.0073  0.9981
    14 H(1)   Bbb    -0.0017    -0.910    -0.325    -0.303  0.5167  0.8558  0.0256
              Bcc     0.0059     3.137     1.119     1.046  0.8540 -0.5173  0.0565
 
              Baa    -0.0020    -1.089    -0.388    -0.363 -0.1174  0.3012  0.9463
    15 H(1)   Bbb    -0.0013    -0.709    -0.253    -0.236  0.5227  0.8290 -0.1990
              Bcc     0.0034     1.798     0.641     0.600  0.8444 -0.4713  0.2548
 

 ---------------------------------------------------------------------------------

 D1PCM: PCM CHGder 1st derivatives, ID1Alg=3 FixD1E=F DoIter=F DoCFld=F I1PDM=0.
 Calling FoFJK, ICntrl=      2127 FMM=F ISym2X=0 I1Cent= 0 IOpClX= 1 NMat=1 NMatS=1 NMatT=0.
 ***** Axes restored to original set *****
 -------------------------------------------------------------------
 Center     Atomic                   Forces (Hartrees/Bohr)
 Number     Number              X              Y              Z
 -------------------------------------------------------------------
      1        7          -0.026770067    0.072861627   -0.004540516
      2        7           0.095862750    0.013126265    0.008730691
      3        6           0.076032620   -0.075717508    0.006138064
      4        6          -0.016586397    0.005398334    0.002620145
      5        6           0.028050177   -0.009607781   -0.002973516
      6        1           0.007540521    0.008352605   -0.001182378
      7        1          -0.001093402   -0.001163930    0.000329592
      8        6          -0.055741030   -0.112164016    0.020829492
      9        8          -0.040648916    0.041779724   -0.013754499
     10        8          -0.070533186    0.044217723   -0.018902575
     11        1          -0.000433318   -0.002006820    0.000136290
     12        1          -0.002425051    0.000561511    0.000577455
     13        8           0.001899787    0.019288969    0.005302112
     14        1           0.003824484   -0.007141215   -0.001905868
     15        1           0.001021029    0.002214511   -0.001404490
 -------------------------------------------------------------------
 Cartesian Forces:  Max     0.112164016 RMS     0.035230583

 GradGradGradGradGradGradGradGradGradGradGradGradGradGradGradGradGradGrad
 Berny optimization.
 FormGI is forming the generalized inverse of G from B-inverse, IUseBI=4.
 Internal  Forces:  Max     0.159359751 RMS     0.031661763
 Search for a local minimum.
 Step number   1 out of a maximum of   74
 All quantities printed in internal units (Hartrees-Bohrs-Radians)
 Mixed Optimization -- RFO/linear search
 Second derivative matrix not updated -- first step.
 ITU=  0
     Eigenvalues ---    0.00230   0.01448   0.02104   0.02195   0.02218
     Eigenvalues ---    0.02267   0.02335   0.02361   0.02912   0.03366
     Eigenvalues ---    0.03793   0.04240   0.06720   0.16000   0.16000
     Eigenvalues ---    0.16000   0.16000   0.16000   0.16000   0.22000
     Eigenvalues ---    0.22812   0.23138   0.24934   0.25000   0.25000
     Eigenvalues ---    0.35755   0.35961   0.36052   0.40779   0.44230
     Eigenvalues ---    0.44819   0.51617   0.53730   0.54085   0.54154
     Eigenvalues ---    0.54604   0.57428   0.75150   1.01216
 RFO step:  Lambda=-1.10113601D-01 EMin= 2.30000000D-03
 Linear search not attempted -- first point.
 Maximum step size (   0.300) exceeded in Quadratic search.
    -- Step size scaled by   0.638
 Iteration  1 RMS(Cart)=  0.13884300 RMS(Int)=  0.00590480
 Iteration  2 RMS(Cart)=  0.00948574 RMS(Int)=  0.00047901
 Iteration  3 RMS(Cart)=  0.00002899 RMS(Int)=  0.00047884
 Iteration  4 RMS(Cart)=  0.00000001 RMS(Int)=  0.00047884
 Variable       Old X    -DE/DX   Delta X   Delta X   Delta X     New X
                                 (Linear)    (Quad)   (Total)
    R1        2.53334   0.03961   0.00000   0.04049   0.04036   2.57371
    R2        2.54805   0.02497   0.00000   0.02291   0.02294   2.57099
    R3        1.92880  -0.00157   0.00000  -0.00181  -0.00181   1.92699
    R4        2.51899   0.08531   0.00000   0.08115   0.08105   2.60005
    R5        2.40642   0.15936   0.00000   0.11791   0.11791   2.52433
    R6        2.66370  -0.00782   0.00000  -0.01057  -0.01051   2.65318
    R7        2.04467  -0.01041   0.00000  -0.01419  -0.01419   2.03048
    R8        2.61487   0.01032   0.00000   0.00621   0.00635   2.62122
    R9        2.04000  -0.00032   0.00000  -0.00044  -0.00044   2.03956
   R10        2.04143  -0.00128   0.00000  -0.00173  -0.00173   2.03970
   R11        2.55954  -0.03664   0.00000  -0.03588  -0.03588   2.52366
   R12        2.28156   0.08765   0.00000   0.04979   0.04979   2.33135
   R13        3.30702   0.01453   0.00000   0.05226   0.05226   3.35928
   R14        1.82978   0.01734   0.00000   0.01707   0.01707   1.84686
   R15        1.82592  -0.00013   0.00000  -0.00013  -0.00013   1.82579
    A1        1.96673  -0.01220   0.00000  -0.01964  -0.01983   1.94690
    A2        2.06221   0.00481   0.00000   0.00678   0.00687   2.06908
    A3        2.25424   0.00741   0.00000   0.01287   0.01296   2.26721
    A4        1.83269  -0.00388   0.00000   0.00654   0.00673   1.83942
    A5        2.31332  -0.06243   0.00000  -0.12250  -0.12280   2.19052
    A6        2.08951   0.06629   0.00000   0.11878   0.11951   2.20902
    A7        1.94234  -0.01508   0.00000  -0.02544  -0.02558   1.91677
    A8        2.09214   0.01208   0.00000   0.02344   0.02350   2.11564
    A9        2.24870   0.00300   0.00000   0.00200   0.00207   2.25077
   A10        1.82092   0.01994   0.00000   0.02734   0.02743   1.84835
   A11        2.23761  -0.01159   0.00000  -0.01750  -0.01755   2.22007
   A12        2.22465  -0.00835   0.00000  -0.00984  -0.00989   2.21476
   A13        1.86210   0.01122   0.00000   0.01119   0.01123   1.87332
   A14        2.11812  -0.00784   0.00000  -0.01085  -0.01088   2.10724
   A15        2.30297  -0.00338   0.00000  -0.00033  -0.00037   2.30260
   A16        1.88273   0.07364   0.00000   0.13096   0.13093   2.01366
   A17        2.11967  -0.02595   0.00000  -0.04544  -0.04551   2.07416
   A18        2.27568  -0.04719   0.00000  -0.08325  -0.08338   2.19230
   A19        2.34880  -0.00018   0.00000  -0.00043  -0.00043   2.34836
   A20        1.83429   0.00457   0.00000   0.01078   0.01078   1.84507
   A21        2.35636   0.02212   0.00000   0.03916   0.03916   2.39552
    D1       -0.00076   0.00088   0.00000   0.00393   0.00422   0.00347
    D2       -2.80200  -0.01593   0.00000  -0.03741  -0.03667  -2.83867
    D3        3.13803   0.00371   0.00000   0.00973   0.00974  -3.13541
    D4        0.33679  -0.01310   0.00000  -0.03162  -0.03114   0.30564
    D5        0.00012  -0.00214   0.00000  -0.00622  -0.00625  -0.00613
    D6        3.14125   0.00030   0.00000   0.00060   0.00053  -3.14141
    D7       -3.13829  -0.00534   0.00000  -0.01278  -0.01255   3.13235
    D8        0.00285  -0.00290   0.00000  -0.00597  -0.00577  -0.00293
    D9        0.00111   0.00074   0.00000  -0.00008  -0.00056   0.00054
   D10       -3.14048   0.00310   0.00000   0.00342   0.00280  -3.13768
   D11        2.85558  -0.01333   0.00000  -0.01882  -0.01708   2.83849
   D12       -0.28601  -0.01097   0.00000  -0.01532  -0.01372  -0.29973
   D13        3.04730   0.00189   0.00000   0.00765   0.00623   3.05352
   D14       -0.19216   0.00437   0.00000   0.02516   0.02469  -0.16747
   D15        0.28608  -0.00154   0.00000  -0.01263  -0.01216   0.27391
   D16       -2.95338   0.00094   0.00000   0.00488   0.00630  -2.94708
   D17       -0.00104  -0.00199   0.00000  -0.00353  -0.00311  -0.00416
   D18        3.14106   0.00011   0.00000  -0.00026  -0.00015   3.14091
   D19        3.14054  -0.00462   0.00000  -0.00742  -0.00681   3.13373
   D20       -0.00054  -0.00252   0.00000  -0.00415  -0.00385  -0.00439
   D21        0.00054   0.00241   0.00000   0.00565   0.00557   0.00611
   D22       -3.14053  -0.00039   0.00000  -0.00217  -0.00226   3.14040
   D23       -3.14156   0.00032   0.00000   0.00241   0.00262  -3.13894
   D24        0.00056  -0.00248   0.00000  -0.00541  -0.00521  -0.00465
   D25       -0.31211  -0.00585   0.00000  -0.01944  -0.01858  -0.33070
   D26        2.70708   0.00512   0.00000   0.01641   0.01555   2.72263
   D27        0.64649  -0.00002   0.00000  -0.00014  -0.00014   0.64635
   D28       -2.34121  -0.00222   0.00000  -0.01138  -0.01138  -2.35259
         Item               Value     Threshold  Converged?
 Maximum Force            0.159360     0.000450     NO 
 RMS     Force            0.031662     0.000300     NO 
 Maximum Displacement     0.565588     0.001800     NO 
 RMS     Displacement     0.143077     0.001200     NO 
 Predicted change in Energy=-5.302249D-02
 GradGradGradGradGradGradGradGradGradGradGradGradGradGradGradGradGradGrad

                          Input orientation:                          
 ---------------------------------------------------------------------
 Center     Atomic      Atomic             Coordinates (Angstroms)
 Number     Number       Type             X           Y           Z
 ---------------------------------------------------------------------
      1          7           0        1.096778    0.752626   -0.031489
      2          7           0        0.436462   -0.428328    0.124166
      3          6           0        1.414458   -1.396100    0.125634
      4          6           0        2.675578   -0.798783   -0.029327
      5          6           0        2.440499    0.564428   -0.131367
      6          1           0        1.168118   -2.436613    0.231313
      7          1           0        3.632970   -1.295725   -0.065585
      8          6           0       -0.870825   -0.618281   -0.074160
      9          8           0       -1.288583   -1.881989    0.035302
     10          8           0       -1.594698    0.364687   -0.252464
     11          1           0        0.553608    1.615332   -0.054497
     12          1           0        3.107111    1.403720   -0.258795
     13          8           0       -0.733543    2.778866    0.058997
     14          1           0       -1.440173    2.104061    0.080339
     15          1           0       -0.826541    3.281180    0.879063
 ---------------------------------------------------------------------
                    Distance matrix (angstroms):
                    1          2          3          4          5
     1  N    0.000000
     2  N    1.361947   0.000000
     3  C    2.177758   1.375886   0.000000
     4  C    2.213478   2.274740   1.404003   0.000000
     5  C    1.360508   2.251006   2.227663   1.387090   0.000000
     6  H    3.200843   2.140096   1.074485   2.241173   3.279747
     7  H    3.260242   3.317537   2.228999   1.079289   2.210540
     8  C    2.398472   1.335820   2.422280   3.551277   3.516667
     9  O    3.554659   2.257610   2.747849   4.109998   4.463047
    10  O    2.728254   2.212765   3.506900   4.431558   4.041952
    11  H    1.019717   2.054796   3.137232   3.214240   2.161172
    12  H    2.125331   3.261201   3.294215   2.256080   1.079361
    13  O    2.732016   3.414565   4.695603   4.942619   3.874857
    14  H    2.876630   3.152249   4.516868   5.037652   4.180300
    15  H    3.304822   3.990676   5.240866   5.453082   4.367523
                    6          7          8          9         10
     6  H    0.000000
     7  H    2.732264   0.000000
     8  C    2.748988   4.554468   0.000000
     9  O    2.526145   4.957375   1.335463   0.000000
    10  O    3.964148   5.488206   1.233698   2.285622   0.000000
    11  H    4.108231   4.237552   2.649231   3.953857   2.493696
    12  H    4.329902   2.756966   4.466157   5.495862   4.815250
    13  O    5.554028   5.973630   3.402526   4.693847   2.582025
    14  H    5.238673   6.108733   2.785529   3.989185   1.777655
    15  H    6.090271   6.459695   4.014522   5.252021   3.221233
                   11         12         13         14         15
    11  H    0.000000
    12  H    2.570388   0.000000
    13  O    1.738808   4.091778   0.000000
    14  H    2.057232   4.613381   0.977315   0.000000
    15  H    2.356140   4.504797   0.966165   1.549230   0.000000
 Stoichiometry    C4H6N2O3(1-,2)
 Framework group  C1[X(C4H6N2O3)]
 Deg. of freedom    39
 Full point group                 C1      NOp   1
 Largest Abelian subgroup         C1      NOp   1
 Largest concise Abelian subgroup C1      NOp   1
                         Standard orientation:                         
 ---------------------------------------------------------------------
 Center     Atomic      Atomic             Coordinates (Angstroms)
 Number     Number       Type             X           Y           Z
 ---------------------------------------------------------------------
      1          7           0       -0.293345   -1.001738   -0.029140
      2          7           0       -0.348021    0.349443    0.132782
      3          6           0       -1.687732    0.662847    0.136609
      4          6           0       -2.450376   -0.505081   -0.023215
      5          6           0       -1.537157   -1.543592   -0.130665
      6          1           0       -2.021849    1.678058    0.247197
      7          1           0       -3.526320   -0.582035   -0.059092
      8          6           0        0.666770    1.195930   -0.062339
      9          8           0        0.362039    2.491008    0.053301
     10          8           0        1.797704    0.737490   -0.243531
     11          1           0        0.620779   -1.452891   -0.054852
     12          1           0       -1.666507   -2.606983   -0.262908
     13          8           0        2.326455   -1.772002    0.056007
     14          1           0        2.575863   -0.827392    0.081532
     15          1           0        2.668978   -2.155289    0.874081
 ---------------------------------------------------------------------
 Rotational constants (GHZ):           2.0418537           1.5792405           0.8989555
 Standard basis: 6-31+G(d,p) (6D, 7F)
 There are   201 symmetry adapted cartesian basis functions of A   symmetry.
 There are   201 symmetry adapted basis functions of A   symmetry.
   201 basis functions,   330 primitive gaussians,   201 cartesian basis functions
    35 alpha electrons       34 beta electrons
       nuclear repulsion energy       454.7421507955 Hartrees.
 NAtoms=   15 NActive=   15 NUniq=   15 SFac= 1.00D+00 NAtFMM=   60 NAOKFM=F Big=F
 Integral buffers will be    131072 words long.
 Raffenetti 2 integral format.
 Two-electron integral symmetry is turned on.
 ------------------------------------------------------------------------------
 Polarizable Continuum Model (PCM)
 =================================
 Model                : PCM.
 Atomic radii         : SMD-Coulomb.
 Polarization charges : Total charges.
 Charge compensation  : None.
 Solution method      : On-the-fly selection.
 Cavity type          : VdW (van der Waals Surface) (Alpha=1.000).
 Cavity algorithm     : GePol (No added spheres)
                        Default sphere list used, NSphG=   15.
                        Lebedev-Laikov grids with approx.  5.0 points / Ang**2.
                        Smoothing algorithm: York/Karplus (Gamma=1.0000).
                        Polarization charges: spherical gaussians, with
                                              point-specific exponents (IZeta= 3).
                        Self-potential: point-specific (ISelfS= 7).
                        Self-field    : sphere-specific E.n sum rule (ISelfD= 2).
 1st derivatives      : Analytical E(r).r(x)/FMM algorithm (CHGder, D1EAlg=3).
                        Cavity 1st derivative terms included.
 Solvent              : Water, Eps=  78.355300 Eps(inf)=   1.777849
 ------------------------------------------------------------------------------
 Spheres list:
 ISph  on   Nord     Re0    Alpha      Xe            Ye            Ze
    1   N      1    1.8900  1.000     -0.293345     -1.001738     -0.029140
    2   N      2    1.8900  1.000     -0.348021      0.349443      0.132782
    3   C      3    1.8500  1.000     -1.687732      0.662847      0.136609
    4   C      4    1.8500  1.000     -2.450376     -0.505081     -0.023215
    5   C      5    1.8500  1.000     -1.537157     -1.543592     -0.130665
    6   H      6    1.2000  1.000     -2.021849      1.678058      0.247197
    7   H      7    1.2000  1.000     -3.526320     -0.582035     -0.059092
    8   C      8    1.8500  1.000      0.666770      1.195930     -0.062339
    9   O      9    1.5200  1.000      0.362039      2.491008      0.053301
   10   O     10    1.5200  1.000      1.797704      0.737490     -0.243531
   11   H     11    1.2000  1.000      0.620779     -1.452891     -0.054852
   12   H     12    1.2000  1.000     -1.666507     -2.606983     -0.262908
   13   O     13    1.5200  1.000      2.326455     -1.772002      0.056007
   14   H     14    1.2000  1.000      2.575863     -0.827392      0.081532
   15   H     15    1.2000  1.000      2.668978     -2.155289      0.874081
 ------------------------------------------------------------------------------
 ------------------------------------------------------------------------------
 Atomic radii for non-electrostatic terms: SMD-CDS.
 ------------------------------------------------------------------------------
 Nuclear repulsion after PCM non-electrostatic terms =      454.7509891735 Hartrees.
 One-electron integrals computed using PRISM.
 NBasis=   201 RedAO= T EigKep=  3.95D-05  NBF=   201
 NBsUse=   201 1.00D-06 EigRej= -1.00D+00 NBFU=   201
 Initial guess from the checkpoint file:  "/scratch/gongke2021/bizuo/Gau-22316.chk"
 B after Tr=     0.000000   -0.000000   -0.000000
         Rot=    0.998974    0.000162    0.002023    0.045240 Ang=   5.19 deg.
 Initial guess <Sx>= 0.0000 <Sy>= 0.0000 <Sz>= 0.5000 <S**2>= 0.7625 S= 0.5062
 ExpMin= 4.38D-02 ExpMax= 5.48D+03 ExpMxC= 8.25D+02 IAcc=2 IRadAn=         4 AccDes= 0.00D+00
 Harris functional with IExCor= 1009 and IRadAn=       4 diagonalized for initial guess.
 HarFok:  IExCor= 1009 AccDes= 0.00D+00 IRadAn=         4 IDoV= 1 UseB2=F ITyADJ=14
 ICtDFT=  3500011 ScaDFX=  1.000000  1.000000  1.000000  1.000000
 FoFCou: FMM=F IPFlag=           0 FMFlag=      100000 FMFlg1=           0
         NFxFlg=           0 DoJE=T BraDBF=F KetDBF=T FulRan=T
         wScrn=  0.000000 ICntrl=       500 IOpCl=  0 I1Cent=   200000004 NGrid=           0
         NMat0=    1 NMatS0=      1 NMatT0=    0 NMatD0=    1 NMtDS0=    0 NMtDT0=    0
 Petite list used in FoFCou.
 Requested convergence on RMS density matrix=1.00D-08 within 128 cycles.
 Requested convergence on MAX density matrix=1.00D-06.
 Requested convergence on             energy=1.00D-06.
 No special actions if energy rises.
 Inv3:  Mode=1 IEnd=     4356075.
 Iteration    1 A*A^-1 deviation from unit magnitude is 2.66D-15 for    251.
 Iteration    1 A*A^-1 deviation from orthogonality  is 2.16D-15 for    556    185.
 Iteration    1 A^-1*A deviation from unit magnitude is 2.66D-15 for    367.
 Iteration    1 A^-1*A deviation from orthogonality  is 2.22D-15 for    954    243.
 Error on total polarization charges =  0.06671
 SCF Done:  E(UM062X) =  -491.134809829     A.U. after   17 cycles
            NFock= 17  Conv=0.39D-08     -V/T= 2.0079
 <Sx>= 0.0000 <Sy>= 0.0000 <Sz>= 0.5000 <S**2>= 0.7623 S= 0.5061
 <L.S>=  0.00000000000    
 SMD-CDS (non-electrostatic) energy       (kcal/mol) =       5.55
 (included in total energy above)
 Annihilation of the first spin contaminant:
 S**2 before annihilation     0.7623,   after     0.7501
 D1PCM: PCM CHGder 1st derivatives, ID1Alg=3 FixD1E=F DoIter=F DoCFld=F I1PDM=0.
 Calling FoFJK, ICntrl=      2127 FMM=F ISym2X=0 I1Cent= 0 IOpClX= 1 NMat=1 NMatS=1 NMatT=0.
 ***** Axes restored to original set *****
 -------------------------------------------------------------------
 Center     Atomic                   Forces (Hartrees/Bohr)
 Number     Number              X              Y              Z
 -------------------------------------------------------------------
      1        7          -0.012852852    0.032322081   -0.004700433
      2        7           0.038062501   -0.009254388    0.001286378
      3        6           0.029061168   -0.029603964    0.003131362
      4        6          -0.012609938    0.004877265    0.000901918
      5        6           0.013473256   -0.008553931   -0.000328887
      6        1          -0.002583331   -0.000575131    0.000081851
      7        1          -0.000324522   -0.001120036    0.000297472
      8        6          -0.033825577   -0.072566548    0.013472719
      9        8           0.013660675    0.041018517   -0.006359120
     10        8          -0.030601643    0.027526917   -0.010722076
     11        1          -0.002017814    0.003017498    0.001490026
     12        1          -0.001029985    0.000104713    0.000446685
     13        8          -0.006191207    0.013500022    0.003203915
     14        1           0.006733445   -0.001911097   -0.001393585
     15        1           0.001045826    0.001218082   -0.000808225
 -------------------------------------------------------------------
 Cartesian Forces:  Max     0.072566548 RMS     0.018593715

 GradGradGradGradGradGradGradGradGradGradGradGradGradGradGradGradGradGrad
 Berny optimization.
 Using GEDIIS/GDIIS optimizer.
 FormGI is forming the generalized inverse of G from B-inverse, IUseBI=4.
 Internal  Forces:  Max     0.050557813 RMS     0.012782420
 Search for a local minimum.
 Step number   2 out of a maximum of   74
 All quantities printed in internal units (Hartrees-Bohrs-Radians)
 Mixed Optimization -- RFO/linear search
 Update second derivatives using D2CorX and points    1    2
 DE= -4.09D-02 DEPred=-5.30D-02 R= 7.72D-01
 TightC=F SS=  1.41D+00  RLast= 3.08D-01 DXNew= 5.0454D-01 9.2496D-01
 Trust test= 7.72D-01 RLast= 3.08D-01 DXMaxT set to 5.05D-01
 ITU=  1  0
 Use linear search instead of GDIIS.
     Eigenvalues ---    0.00230   0.01449   0.02106   0.02197   0.02218
     Eigenvalues ---    0.02269   0.02335   0.02361   0.02924   0.03370
     Eigenvalues ---    0.03723   0.04240   0.06671   0.15543   0.15999
     Eigenvalues ---    0.16000   0.16000   0.16000   0.16032   0.21989
     Eigenvalues ---    0.22041   0.23667   0.24450   0.24991   0.35440
     Eigenvalues ---    0.35959   0.36052   0.38919   0.40752   0.44206
     Eigenvalues ---    0.45321   0.49606   0.51770   0.53768   0.54154
     Eigenvalues ---    0.55589   0.60432   0.84111   0.98107
 RFO step:  Lambda=-3.55572986D-02 EMin= 2.29920229D-03
 Quartic linear search produced a step of  0.59367.
 Iteration  1 RMS(Cart)=  0.24967570 RMS(Int)=  0.01190774
 Iteration  2 RMS(Cart)=  0.02424092 RMS(Int)=  0.00157368
 Iteration  3 RMS(Cart)=  0.00038758 RMS(Int)=  0.00155393
 Iteration  4 RMS(Cart)=  0.00000035 RMS(Int)=  0.00155393
 Variable       Old X    -DE/DX   Delta X   Delta X   Delta X     New X
                                 (Linear)    (Quad)   (Total)
    R1        2.57371   0.01778   0.02396   0.03578   0.05968   2.63339
    R2        2.57099   0.01232   0.01362   0.02441   0.03823   2.60922
    R3        1.92699   0.00360  -0.00108   0.01244   0.01137   1.93835
    R4        2.60005   0.02633   0.04812   0.03767   0.08559   2.68564
    R5        2.52433   0.04730   0.07000   0.04566   0.11567   2.64000
    R6        2.65318  -0.00666  -0.00624  -0.02240  -0.02873   2.62445
    R7        2.03048   0.00115  -0.00842   0.00922   0.00080   2.03128
    R8        2.62122   0.00409   0.00377   0.00381   0.00774   2.62896
    R9        2.03956   0.00022  -0.00026   0.00101   0.00075   2.04031
   R10        2.03970  -0.00060  -0.00103  -0.00183  -0.00286   2.03684
   R11        2.52366  -0.04361  -0.02130  -0.10497  -0.12627   2.39739
   R12        2.33135   0.05056   0.02956   0.05408   0.08364   2.41499
   R13        3.35928   0.01283   0.03103   0.20427   0.23529   3.59457
   R14        1.84686   0.00636   0.01014   0.01092   0.02105   1.86791
   R15        1.82579  -0.00015  -0.00008  -0.00034  -0.00042   1.82537
    A1        1.94690  -0.01301  -0.01177  -0.06308  -0.07484   1.87205
    A2        2.06908   0.00623   0.00408   0.02981   0.03362   2.10270
    A3        2.26721   0.00677   0.00770   0.03320   0.04072   2.30793
    A4        1.83942   0.00633   0.00400   0.05613   0.05983   1.89925
    A5        2.19052  -0.01084  -0.07290  -0.03820  -0.11301   2.07752
    A6        2.20902   0.00487   0.07095  -0.00328   0.06874   2.27776
    A7        1.91677  -0.00907  -0.01518  -0.04982  -0.06521   1.85156
    A8        2.11564   0.00213   0.01395   0.00405   0.01811   2.13375
    A9        2.25077   0.00693   0.00123   0.04578   0.04711   2.29788
   A10        1.84835   0.01011   0.01628   0.03600   0.05239   1.90074
   A11        2.22007  -0.00624  -0.01042  -0.02687  -0.03737   2.18270
   A12        2.21476  -0.00387  -0.00587  -0.00909  -0.01505   2.19972
   A13        1.87332   0.00563   0.00666   0.02077   0.02776   1.90108
   A14        2.10724  -0.00372  -0.00646  -0.01683  -0.02355   2.08369
   A15        2.30260  -0.00192  -0.00022  -0.00404  -0.00449   2.29811
   A16        2.01366  -0.00686   0.07773  -0.06938   0.00569   2.01935
   A17        2.07416   0.01517  -0.02702   0.09753   0.06791   2.14208
   A18        2.19230  -0.00792  -0.04950  -0.01944  -0.07146   2.12084
   A19        2.34836   0.02295  -0.00026   0.18404   0.18378   2.53214
   A20        1.84507   0.00309   0.00640   0.02318   0.02958   1.87465
   A21        2.39552   0.02444   0.02325   0.12396   0.14721   2.54274
    D1        0.00347   0.00002   0.00251   0.00624   0.00909   0.01256
    D2       -2.83867  -0.00269  -0.02177  -0.04426  -0.06181  -2.90048
    D3       -3.13541   0.00128   0.00578   0.03167   0.03660  -3.09881
    D4        0.30564  -0.00143  -0.01849  -0.01883  -0.03430   0.27134
    D5       -0.00613  -0.00007  -0.00371  -0.00249  -0.00583  -0.01196
    D6       -3.14141   0.00051   0.00031   0.01109   0.01126  -3.13015
    D7        3.13235  -0.00152  -0.00745  -0.03164  -0.03790   3.09444
    D8       -0.00293  -0.00094  -0.00343  -0.01806  -0.02082  -0.02375
    D9        0.00054   0.00002  -0.00033  -0.00764  -0.00889  -0.00834
   D10       -3.13768   0.00021   0.00166  -0.01168  -0.01167   3.13383
   D11        2.83849  -0.00079  -0.01014   0.03583   0.03117   2.86967
   D12       -0.29973  -0.00060  -0.00814   0.03180   0.02839  -0.27134
   D13        3.05352  -0.00128   0.00370  -0.02501  -0.02456   3.02896
   D14       -0.16747   0.00329   0.01466   0.08612   0.10044  -0.06703
   D15        0.27391  -0.00389  -0.00722  -0.09372  -0.10061   0.17331
   D16       -2.94708   0.00068   0.00374   0.01741   0.02440  -2.92268
   D17       -0.00416  -0.00009  -0.00185   0.00613   0.00509   0.00093
   D18        3.14091  -0.00016  -0.00009  -0.00542  -0.00547   3.13543
   D19        3.13373  -0.00031  -0.00404   0.01044   0.00814  -3.14132
   D20       -0.00439  -0.00038  -0.00229  -0.00111  -0.00243  -0.00682
   D21        0.00611   0.00017   0.00330  -0.00192   0.00077   0.00688
   D22        3.14040  -0.00051  -0.00134  -0.01765  -0.01923   3.12117
   D23       -3.13894   0.00023   0.00155   0.00954   0.01141  -3.12754
   D24       -0.00465  -0.00045  -0.00309  -0.00619  -0.00859  -0.01324
   D25       -0.33070  -0.00366  -0.01103  -0.08190  -0.09007  -0.42077
   D26        2.72263   0.00163   0.00923   0.04001   0.04639   2.76903
   D27        0.64635   0.00324  -0.00008   0.13400   0.13391   0.78027
   D28       -2.35259  -0.00086  -0.00675  -0.03683  -0.04358  -2.39617
         Item               Value     Threshold  Converged?
 Maximum Force            0.050558     0.000450     NO 
 RMS     Force            0.012782     0.000300     NO 
 Maximum Displacement     1.029112     0.001800     NO 
 RMS     Displacement     0.267360     0.001200     NO 
 Predicted change in Energy=-1.656322D-02
 GradGradGradGradGradGradGradGradGradGradGradGradGradGradGradGradGradGrad

                          Input orientation:                          
 ---------------------------------------------------------------------
 Center     Atomic      Atomic             Coordinates (Angstroms)
 Number     Number       Type             X           Y           Z
 ---------------------------------------------------------------------
      1          7           0        1.216381    0.681951    0.002544
      2          7           0        0.574766   -0.548105    0.133764
      3          6           0        1.549970   -1.580927    0.089056
      4          6           0        2.774029   -0.947305   -0.081161
      5          6           0        2.566022    0.427041   -0.138611
      6          1           0        1.289589   -2.620003    0.178190
      7          1           0        3.727764   -1.448743   -0.149471
      8          6           0       -0.814688   -0.605671    0.000398
      9          8           0       -1.319999   -1.769332    0.004182
     10          8           0       -1.536509    0.435517   -0.167188
     11          1           0        0.680877    1.555578    0.048817
     12          1           0        3.251783    1.251794   -0.244786
     13          8           0       -1.170434    3.179183    0.031791
     14          1           0       -1.647209    2.315849    0.098012
     15          1           0       -1.371124    3.682257    0.831594
 ---------------------------------------------------------------------
                    Distance matrix (angstroms):
                    1          2          3          4          5
     1  N    0.000000
     2  N    1.393530   0.000000
     3  C    2.288970   1.421177   0.000000
     4  C    2.255605   2.245509   1.388802   0.000000
     5  C    1.380738   2.233875   2.261886   1.391184   0.000000
     6  H    3.307434   2.192193   1.074906   2.251387   3.318753
     7  H    3.296971   3.291317   2.194802   1.079684   2.206429
     8  C    2.404832   1.397027   2.559413   3.605865   3.537658
     9  O    3.527324   2.257946   2.877399   4.176611   4.466050
    10  O    2.769105   2.348525   3.695682   4.527730   4.102640
    11  H    1.025733   2.108069   3.254935   3.265364   2.205107
    12  H    2.128087   3.247977   3.321434   2.256337   1.077849
    13  O    3.454548   4.116891   5.482930   5.709593   4.643752
    14  H    3.298315   3.625008   5.040526   5.497966   4.623301
    15  H    4.047757   4.708441   6.065086   6.280785   5.199890
                    6          7          8          9         10
     6  H    0.000000
     7  H    2.724685   0.000000
     8  C    2.918412   4.622457   0.000000
     9  O    2.750249   5.060267   1.268645   0.000000
    10  O    4.176401   5.591362   1.277960   2.222071   0.000000
    11  H    4.221699   4.283548   2.628699   3.880789   2.493591
    12  H    4.361184   2.743819   4.477330   5.485470   4.857991
    13  O    6.301088   6.741135   3.801665   4.950851   2.775123
    14  H    5.744028   6.566867   3.039391   4.099338   1.902166
    15  H    6.872032   7.299885   4.403048   5.514258   3.400918
                   11         12         13         14         15
    11  H    0.000000
    12  H    2.605388   0.000000
    13  O    2.462466   4.831907   0.000000
    14  H    2.449575   5.024923   0.988456   0.000000
    15  H    3.057158   5.332637   0.965942   1.575258   0.000000
 Stoichiometry    C4H6N2O3(1-,2)
 Framework group  C1[X(C4H6N2O3)]
 Deg. of freedom    39
 Full point group                 C1      NOp   1
 Largest Abelian subgroup         C1      NOp   1
 Largest concise Abelian subgroup C1      NOp   1
                         Standard orientation:                         
 ---------------------------------------------------------------------
 Center     Atomic      Atomic             Coordinates (Angstroms)
 Number     Number       Type             X           Y           Z
 ---------------------------------------------------------------------
      1          7           0       -0.273343   -1.043371    0.011798
      2          7           0       -0.575624    0.310667    0.142690
      3          6           0       -1.987659    0.469664    0.117775
      4          6           0       -2.515715   -0.805051   -0.040426
      5          6           0       -1.470481   -1.720513   -0.109769
      6          1           0       -2.458352    1.431589    0.210364
      7          1           0       -3.568652   -1.038079   -0.092759
      8          6           0        0.446232    1.251189   -0.008683
      9          8           0        0.080901    2.466084   -0.003850
     10          8           0        1.667133    0.921484   -0.192739
     11          1           0        0.700202   -1.364658    0.045160
     12          1           0       -1.463199   -2.793447   -0.212335
     13          8           0        3.161704   -1.409425   -0.007188
[...]
 ! D22   D(3,4,5,12)          -179.8129         -DE/DX =    0.0                 !
 ! D23   D(7,4,5,1)            175.4316         -DE/DX =    0.0                 !
 ! D24   D(7,4,5,12)            -0.2188         -DE/DX =    0.0                 !
 ! D25   D(2,8,10,14)          -41.446          -DE/DX =    0.0                 !
 ! D26   D(9,8,10,14)          137.1389         -DE/DX =    0.0                 !
 ! D27   D(8,10,14,13)          57.6357         -DE/DX =    0.0                 !
 ! D28   D(15,13,14,10)       -128.8743         -DE/DX =    0.0                 !
 --------------------------------------------------------------------------------
 GradGradGradGradGradGradGradGradGradGradGradGradGradGradGradGradGradGrad


 ----------------------------------------------------------------------

 Electric dipole moment (input orientation):
 (Debye = 10**-18 statcoulomb cm , SI units = C m)
                  (au)            (Debye)         (10**-30 SI)
   Tot        0.388807D+01      0.988250D+01      0.329645D+02
   x          0.353859D+01      0.899420D+01      0.300014D+02
   y          0.984444D+00      0.250221D+01      0.834647D+01
   z          0.127528D+01      0.324145D+01      0.108123D+02

 Dipole polarizability, Alpha (input orientation).
 (esu units = cm**3 , SI units = C**2 m**2 J**-1)
 Alpha(0;0):
               (au)            (10**-24 esu)      (10**-40 SI)
   iso        0.121679D+03      0.180309D+02      0.200621D+02
   aniso      0.695024D+02      0.102992D+02      0.114594D+02
   xx         0.149508D+03      0.221548D+02      0.246506D+02
   yx         0.105621D+02      0.156513D+01      0.174145D+01
   yy         0.134685D+03      0.199583D+02      0.222066D+02
   zx         0.162781D+01      0.241217D+00      0.268390D+00
   zy        -0.137975D+02     -0.204457D+01     -0.227490D+01
   zz         0.808426D+02      0.119796D+02      0.133291D+02

 ----------------------------------------------------------------------

 Dipole orientation:
     7          1.42201594          1.22855186          1.98409829
     7          0.49846009         -0.85569771          0.60308390
     6          1.03612890         -3.06660805          1.94636695
     6          2.02701388         -2.35766988          4.27448516
     6          2.16118308          0.24935360          4.34426288
     1          0.62685260         -4.88945406          1.13848555
     1          2.60343546         -3.63286313          5.76268086
     6         -0.14286660         -0.63854110         -1.94888758
     8         -0.57822499         -2.67399126         -3.10531482
     8         -0.27105233          1.58581615         -2.84390563
     1          0.18149957          2.70906434          1.97802287
     1          2.81708280          1.52252260          5.79555946
     8         -2.19569273          5.34968463          0.06922253
     1         -1.64980599          4.03404863         -1.12686926
     1         -3.99856890          5.13719881          0.24704905

 Electric dipole moment (dipole orientation):
 (Debye = 10**-18 statcoulomb cm , SI units = C m)
                  (au)            (Debye)         (10**-30 SI)
   Tot        0.388807D+01      0.988250D+01      0.329645D+02
   x          0.000000D+00      0.000000D+00      0.000000D+00
   y          0.000000D+00      0.000000D+00      0.000000D+00
   z          0.388807D+01      0.988250D+01      0.329645D+02

 Dipole polarizability, Alpha (dipole orientation).
 (esu units = cm**3 , SI units = C**2 m**2 J**-1)
 Alpha(0;0):
               (au)            (10**-24 esu)      (10**-40 SI)
   iso        0.121679D+03      0.180309D+02      0.200621D+02
   aniso      0.695024D+02      0.102992D+02      0.114594D+02
   xx         0.853336D+02      0.126451D+02      0.140696D+02
   yx         0.217211D+01      0.321874D+00      0.358133D+00
   yy         0.134984D+03      0.200025D+02      0.222558D+02
   zx         0.233046D+02      0.345339D+01      0.384242D+01
   zy         0.692485D+01      0.102616D+01      0.114175D+01
   zz         0.144719D+03      0.214451D+02      0.238609D+02

 ----------------------------------------------------------------------
 1\1\GINC-NODE7\Freq\UM062X\6-31+G(d,p)\C4H6N2O3(1-,2)\GONGKE2021\05-No
 v-2023\0\\#N Geom=AllCheck Guess=TCheck SCRF=Check GenChk UM062X/6-31+
 G(d,p) Freq\\Title Card Required\\-1,2\N,1.1258997758,0.7540027558,-0.
 5050888481\N,0.4682769456,-0.3959224607,-0.0207361788\C,1.4252906966,-
 1.3787971119,0.2496991818\C,2.6787428281,-0.8008063488,0.0815802276\C,
 2.4996764117,0.5092022119,-0.320229378\H,1.1220932944,-2.3675029253,0.
 5508228653\H,3.6273432106,-1.2965665734,0.233131676\C,-0.9084209277,-0
 .5695935966,-0.1839060646\O,-1.3651533312,-1.7096787085,0.0977679888\O
 ,-1.5692453652,0.4425139872,-0.5755498674\H,0.7400215158,1.6127307274,
 -0.1070631805\H,3.2123302301,1.2846357068,-0.5548037664\O,-0.895086890
 8,2.905162146,0.352706322\H,-1.241637589,2.0321818386,0.0584718229\H,-
 1.1489123049,2.9875210616,1.2803281994\\Version=ES64L-G16RevA.03\State
 =2-A\HF=-491.1548387\S2=0.764235\S2-1=0.\S2A=0.750067\RMSD=2.978e-09\R
 MSF=3.124e-05\ZeroPoint=0.1069011\Thermal=0.1167843\Dipole=3.5385923,0
 .9844445,1.275284\DipoleDeriv=-0.3419887,0.7733549,-0.3302701,0.190443
 7,-0.7611323,0.2087335,-0.0772906,0.5672561,-0.4252402,-2.4179858,-0.2
 501275,-0.0588824,0.10453,-0.1125565,-0.1102538,-0.3337352,-0.1064675,
 -0.0953051,0.1397814,-0.5120973,0.0528742,-0.3770838,-0.4385153,0.0533
 151,0.1344822,-0.0372787,-0.3594998,0.2104035,0.3917785,-0.0757102,0.5
 14473,0.5826032,-0.1530195,-0.1465836,-0.231149,-0.1663128,0.0551559,-
 0.5475104,0.245076,-0.6485459,-0.3681787,-0.1154655,0.0881133,-0.24845
 09,-0.2228119,0.1013731,-0.0136312,0.0071375,0.0123949,0.1173149,0.062
 6944,0.0063362,0.0776432,0.2992398,0.0258472,0.0732322,-0.023534,0.085
 1185,0.1549794,0.0251818,-0.0136035,0.0277239,0.2215873,4.2785818,0.22
 19672,0.28306,0.3558762,3.1641718,-0.6898289,0.4527969,-0.7409474,0.78
 34675,-1.5925108,-0.5275665,0.0854225,-1.0968019,-2.18208,0.2961214,0.
 2296605,0.3734407,-0.8082559,-1.8164852,0.5097929,-0.2306737,1.0224441
 ,-2.0599438,0.2850695,-0.4408825,0.2428544,-0.8939066,0.3810518,-0.199
 2322,0.0150969,-0.1412529,0.5741407,-0.0070057,0.0448303,-0.1481392,0.
 409447,0.0679443,-0.0299473,-0.000971,-0.0196645,0.1071229,0.0634414,0
 .0455197,0.1229764,0.2619275,-0.9345601,0.0909688,-0.1013683,0.1509017
 ,-1.2703736,-0.1493484,-0.0483048,-0.2247171,-0.795912,0.4159547,0.046
 016,0.0690655,-0.113593,1.0970014,0.1824291,0.021123,0.3017366,0.46525
 9,0.427437,-0.026998,0.0636772,-0.03924,0.395446,0.0479357,0.0375381,0
 .0235185,0.326316\Polar=149.5082837,10.562054,134.6851836,1.6278098,-1
 3.7974725,80.8426267\Quadrupole=-2.6844481,-3.9954127,6.6798608,-4.698
 7341,-3.4673761,3.9887697\PG=C01 [X(C4H6N2O3)]\NImag=0\\0.58333682,-0.
 11736560,0.68864850,-0.08070126,0.05069934,0.16367975,-0.12804614,-0.0
 2528738,0.02770976,0.77879750,-0.05799843,-0.20189220,0.04655599,-0.00
 895416,0.58004058,0.04425367,0.06793845,-0.05040246,0.03318148,-0.1628
 3913,0.11250207,-0.00132461,0.00252976,-0.00612667,-0.18916598,0.09556
 484,-0.03126011,0.60748113,0.01990749,-0.05465064,0.01677455,0.0713400
 2,-0.19497027,0.05017315,0.10693916,0.72841843,-0.00369375,0.01757656,
 -0.01210851,-0.01480487,0.04482482,-0.03542878,-0.03253109,-0.19957232
 ,0.12474695,-0.03585306,0.03071546,-0.00658319,-0.06308220,0.02133024,
 -0.00692622,-0.30279482,-0.08280192,0.02550475,0.79415127,0.02892142,-
 0.02112938,0.00916296,0.01513706,0.00498640,0.00408354,-0.04915261,-0.
 11167061,0.02049218,-0.14931059,0.57283608,-0.01247689,0.01289169,0.00
 568959,-0.00303833,0.00041541,0.00808541,0.01716266,0.01987157,-0.0548
 9966,0.04543113,-0.14670115,0.15807024,-0.27242304,0.01748202,-0.00214
 700,-0.07031978,-0.01696263,-0.00087465,0.00748166,-0.04562796,0.00979
 028,-0.10484228,0.04891064,-0.01501140,0.63314366,0.05281711,-0.111416
 73,0.00730082,-0.03528341,-0.00945582,-0.00213267,-0.08999599,-0.07013
 205,0.02612495,0.07458440,-0.30860712,0.08078876,0.11367800,0.71885783
 ,-0.04642997,0.01227648,-0.03591417,0.01212037,0.00766110,-0.00809150,
 0.02716196,0.02180195,0.01740017,-0.02167121,0.08210512,-0.07755873,-0
 .02328014,-0.19245218,0.13857159,-0.00329319,0.00335508,0.00005692,0.0
 0981016,0.02144025,-0.00727272,-0.08200380,-0.09061874,0.02844238,0.00
 403272,-0.02074183,0.00631120,-0.00541652,-0.00096214,0.00043613,0.075
 62086,0.00069167,-0.00040329,-0.00077698,-0.00678366,-0.01309507,0.003
 58734,-0.07976170,-0.32161013,0.09427073,0.00036406,-0.00040966,0.0002
 9756,0.00186401,0.00158941,0.00071531,0.08717523,0.33499036,-0.0018279
 6,0.00146612,0.00195763,0.00118197,0.00245206,-0.00469179,0.02533173,0
 .09540754,-0.03854225,-0.00041607,0.00005623,0.00002342,0.00126553,0.0
 0023155,0.00277370,-0.02711021,-0.09825666,0.03964441,0.00058510,-0.00
 129986,0.00050181,-0.00403022,-0.00237340,0.00017482,-0.00995635,0.014
 68967,-0.00416689,-0.29523764,0.12337797,-0.03797741,0.00430286,-0.001
 47326,0.00066665,0.00058613,-0.00031030,0.00008492,0.30344099,0.000721
 33,-0.00459333,0.00212651,-0.00421370,-0.00200898,0.00206753,-0.010635
 19,0.01240381,-0.00351847,0.12343998,-0.12103416,0.02746551,0.02415653
 ,-0.00077271,0.00100368,0.00090533,-0.00047519,-0.00072012,-0.13400620
 ,0.11485524,0.00147321,0.00416980,0.00641487,0.00056241,0.00165551,0.0
 0519804,0.00246263,-0.00352647,0.00092747,-0.03738611,0.02741749,-0.04
 079656,-0.00728662,0.00069574,-0.00046576,-0.00026494,-0.00069449,-0.0
 0245196,0.04100232,-0.02808185,0.03297231,-0.01952213,-0.00595117,-0.0
 0750802,-0.21187430,-0.02315573,0.00493710,-0.02733625,0.01516896,-0.0
 1291303,0.00361595,-0.00674812,0.00142193,0.01261857,0.01043100,0.0011
 5350,0.00132686,-0.00189654,0.00108543,0.00161344,-0.00012522,0.000138
 07,0.55911897,-0.02955964,-0.00401108,-0.00594775,-0.00075107,-0.10195
 415,0.02113763,0.01818722,0.01390107,-0.00279609,0.00398170,-0.0079532
 4,0.00248389,0.00082974,-0.00401113,0.00210194,-0.00040832,-0.00211966
 ,0.00039308,0.00114714,0.00085215,0.00002221,-0.00599883,0.79856142,0.
 01438012,-0.00177218,-0.00369735,-0.02472768,0.01935619,-0.05686725,-0
 .00138769,-0.00402116,-0.00539865,-0.00042966,-0.00047312,0.00071249,0
 .00108287,0.00368024,-0.00321867,0.00026409,0.00016883,-0.00030851,0.0
 0016569,0.00024651,0.00142625,0.03748517,-0.17951222,0.27038818,-0.006
 86209,0.00076385,-0.00155675,-0.05244272,-0.05957958,0.00685505,0.0036
 6049,-0.00169914,0.00230052,-0.00087271,-0.00081342,-0.00000448,-0.002
 52818,-0.00489362,0.00056611,-0.00167559,-0.00158368,0.00031303,-0.000
 42618,0.00009836,-0.00001267,-0.14069145,-0.11994258,0.02719019,0.1745
 5092,-0.00233096,-0.00176112,0.00587739,-0.05368142,-0.03169694,-0.002
 14321,0.00239591,0.00056134,0.00251672,0.00004973,0.00382619,-0.001066
 56,-0.00381512,-0.00428911,-0.00059603,0.00006881,0.00164020,-0.000653
 91,-0.00041623,0.00017200,-0.00013300,-0.11972225,-0.38381899,0.079819
 15,0.16976759,0.51212218,-0.00201409,0.00390441,0.00201806,0.00518440,
 0.00271496,0.01915258,-0.00100959,-0.00048952,-0.00244867,-0.00022018,
 -0.00118888,0.00023946,0.00102039,0.00074711,0.00124777,-0.00015880,-0
 .00053687,0.00043117,0.00005342,-0.00005597,-0.00006266,0.02951019,0.0
 7779738,-0.09728999,-0.03201766,-0.12162275,0.06407616,0.00289063,0.00
 307240,0.00191156,-0.07265201,0.05078059,-0.03108883,-0.00302716,-0.00
 973070,0.00254142,-0.00276428,0.00658407,-0.00190909,-0.00241805,-0.00
 282963,-0.00150527,-0.00040079,0.00054599,-0.00018620,-0.00093467,-0.0
 0015111,0.00031276,-0.18451935,0.13453559,-0.05635424,0.02975615,0.009
 14461,-0.00121078,0.23817754,-0.00991406,0.00478801,-0.00889629,0.0385
 3670,-0.00593292,0.02210121,0.00481762,0.00134645,-0.00096151,-0.00201
 179,-0.00505643,0.00160767,0.00578058,0.00424521,0.00070425,0.00041616
 ,0.00021349,0.00000483,0.00037772,0.00002352,-0.00009359,0.13390143,-0
 .29436139,0.07855561,0.01700748,-0.10351531,0.04052190,-0.18576866,0.4
 0549579,0.00399952,-0.00218681,0.00158500,-0.02487657,0.01503087,0.006
 07266,-0.00219731,-0.00109126,0.00528200,0.00021659,0.00243901,-0.0003
 2554,-0.00231495,-0.00128474,0.00064727,-0.00014828,-0.00001355,-0.000
 23230,-0.00027077,-0.00026483,-0.00055833,-0.05769207,0.08713882,-0.10
 953550,-0.00363886,0.03682739,0.01344757,0.09034959,-0.13086443,0.0894
 8162,-0.10202171,0.11177077,0.06591087,0.00857970,-0.02271244,-0.01030
 681,-0.00253127,-0.00162708,0.00070200,-0.00628785,-0.00099804,0.00131
 906,-0.00970563,0.02897431,0.00976062,0.00064990,-0.00024561,0.0003380
 9,0.00028396,0.00059137,-0.00124358,0.00459332,-0.00380829,0.00111727,
 -0.00167419,-0.00062091,0.00070908,0.00005227,0.00375097,-0.00016014,0
 .11312309,0.10265590,-0.30162583,-0.11831257,0.00811287,-0.02534857,-0
 .00414998,-0.00306698,0.00022067,-0.00147895,-0.00218035,0.00097982,-0
 .00059214,0.00782426,0.00401757,0.00263323,0.00048481,-0.00048735,-0.0
 0065885,-0.00003305,0.00030951,-0.00039573,-0.00283334,-0.00315798,-0.
 00073156,0.00059226,0.00200896,0.00019756,0.00198870,-0.00072978,0.000
 13386,-0.11337992,0.32247245,0.08664107,-0.16087282,-0.07766348,-0.012
 72305,0.02121814,0.00295043,0.00365059,0.00163268,-0.00188890,-0.00262
 821,0.00084516,0.00036306,-0.00889669,0.01220216,-0.00203052,-0.000906
 01,0.00100986,0.00014366,-0.00009219,0.00088551,0.00009673,0.00074101,
 -0.00070422,0.00203468,0.00023119,-0.00078727,-0.00022448,0.00069864,0
 .00189897,-0.00154609,-0.06659601,0.12230658,0.07892518,-0.01384448,-0
 .02249088,0.00718141,-0.00506595,0.00194663,-0.00152436,-0.00050730,0.
 00364470,-0.00112236,0.01016167,0.00476015,-0.00112713,-0.19057990,-0.
 14529611,0.04063735,0.00078548,-0.00008550,-0.00006698,-0.00022912,-0.
 00081258,0.00030436,0.00179616,-0.00081973,0.00106450,-0.00106917,-0.0
 0081236,-0.00004566,-0.00038371,0.00017346,-0.00009891,0.00037440,0.00
 019175,0.00022767,0.19859674,0.00672544,0.00941126,-0.00368524,0.00464
 135,0.00004811,0.00097068,0.00240813,-0.00291897,0.00206766,-0.0185689
 9,-0.00719380,0.00263630,-0.15266102,-0.21896592,0.06272357,-0.0011038
 9,0.00018333,0.00028563,0.00038714,0.00032889,-0.00110499,-0.00103442,
 0.00049799,-0.00031100,0.00038431,0.00062626,-0.00004695,0.00017870,-0
 .00031867,0.00011339,-0.00093731,-0.00040702,-0.00023105,0.15958847,0.
 21866194,-0.00501043,-0.00553210,-0.00205631,0.00090712,0.00073590,0.0
 0183973,-0.00104864,0.00335171,0.00225990,0.00490028,0.00165987,0.0004
 3709,0.04708556,0.06464875,-0.03309779,0.00033419,0.00025336,0.0012564
 3,-0.00012016,-0.00111736,-0.00273601,-0.00147381,-0.00044939,0.000304
 00,0.00017989,0.00050417,-0.00004411,0.00041823,-0.00056017,0.00020321
 ,-0.00073825,-0.00012224,-0.00013938,-0.04544281,-0.06343685,0.0317562
 8,-0.00385228,0.00219993,0.00045382,0.00096427,-0.00088549,0.00070934,
 0.00039769,0.00061762,-0.00005050,-0.00071735,-0.00006306,-0.00005288,
 0.00175883,0.00075938,0.00064083,-0.00005223,0.00004935,-0.00000325,0.
 00000225,0.00008004,-0.00010255,-0.00458977,0.00207494,-0.00304788,0.0
 0059129,-0.00075128,0.00065991,0.00463914,-0.00862160,-0.00114518,0.00
 149376,-0.00186246,-0.00119088,-0.00008285,-0.00002912,-0.00004519,0.1
 1631326,0.00288422,-0.00130442,-0.00065347,0.00263006,0.00025124,0.001
 11179,0.00000223,-0.00008581,-0.00028446,0.00064080,-0.00044662,0.0001
 5255,-0.00074512,-0.00026762,-0.00038571,0.00008903,-0.00003143,0.0000
 1692,0.00006561,-0.00006300,0.00008384,-0.00978846,0.01112862,-0.00713
 021,0.00001224,-0.00591223,0.00283799,0.00168858,-0.03077025,-0.008632
 51,-0.00121940,0.00005949,0.00037792,0.00012872,-0.00002437,-0.0000246
 3,0.15024324,0.40464699,0.00140759,-0.00089985,0.00052071,0.00138346,-
 0.00047524,0.00015651,-0.00009068,-0.00004802,-0.00006938,0.00037869,-
 0.00021793,0.00004978,-0.00038897,-0.00035773,-0.00011459,0.00005202,-
 0.00003627,-0.00000330,0.00003043,-0.00005033,0.00003161,-0.00438522,0
 .00388100,-0.00278338,0.00015779,-0.00277331,0.00127148,0.00065807,-0.
 01450310,-0.00037503,-0.00204159,0.00143779,-0.00178945,0.00005810,-0.
 00000234,-0.00001451,-0.10330043,0.15255254,0.56837491,0.00069432,0.00
 021858,0.00106515,-0.00145426,0.00151398,-0.00091511,-0.00041032,-0.00
 026172,0.00002904,0.00056128,0.00011813,-0.00004205,-0.00120936,-0.000
 64417,-0.00029820,0.00003822,-0.00003317,0.00000664,-0.00000185,-0.000
 06320,0.00004894,0.00426504,0.00036972,0.00330188,-0.00036474,0.000855
 42,-0.00055981,-0.00860690,0.00269697,-0.00196972,-0.00745594,0.002026
 76,0.00028781,0.00005757,0.00002400,0.00004880,-0.06985030,-0.14873986
 ,-0.04003214,0.08041809,0.00158099,-0.00007475,-0.00029550,-0.00555653
 ,0.00104953,-0.00193790,-0.00023374,-0.00080805,0.00074423,-0.00028174
 ,0.00089660,-0.00025822,-0.00066855,-0.00071586,-0.00027145,-0.0001027
 4,0.00002092,-0.00001997,-0.00013436,0.00000962,-0.00001727,0.01827752
 ,-0.02381247,0.01240749,-0.00016667,0.01037713,-0.00495534,-0.00965637
 ,0.02671847,0.00250364,0.00073414,0.00178470,0.00055182,-0.00012102,0.
 00006938,0.00009114,-0.13235414,-0.34203475,-0.11845388,0.13016381,0.3
 2711925,0.00052526,-0.00024364,-0.00019303,-0.00198631,0.00081566,-0.0
 0045128,-0.00013906,-0.00030197,0.00016756,-0.00010421,0.00028984,-0.0
 0007170,-0.00017587,-0.00024014,-0.00018749,-0.00002653,0.00000790,0.0
 0000482,-0.00004744,0.00000490,0.00001323,0.00743810,-0.00498496,0.004
 03072,-0.00064896,0.00400196,-0.00169932,-0.00470576,0.00974436,-0.004
 59795,0.00030091,0.00054279,0.00101470,-0.00003571,0.00002101,0.000032
 22,-0.01822928,-0.07758499,-0.07339808,0.03313987,0.10551869,0.0882704
 5,-0.00046415,0.00028703,-0.00016841,-0.00001808,0.00004534,0.00005736
 ,0.00003688,0.00005965,-0.00002789,-0.00007071,0.00001823,-0.00000631,
 0.00013717,0.00013414,0.00004127,-0.00000821,0.00000986,0.00000333,0.0
 0000130,0.00001425,-0.00000824,-0.00041506,0.00016240,-0.00010463,0.00
 004819,-0.00013155,0.00009916,0.00019119,-0.00114298,-0.00005296,0.000
 52619,-0.00052122,0.00055506,-0.00000955,-0.00000277,0.00000521,-0.047
 01571,0.00210812,0.14611288,0.00331915,-0.00148060,-0.01530502,0.04374
 140,0.00026311,0.00001499,0.00007023,0.00011328,-0.00002093,0.00003157
 ,0.00000134,-0.00000526,-0.00000605,0.00004901,-0.00002408,0.00000716,
 -0.00004539,-0.00007594,-0.00002126,0.00000294,-0.00000594,-0.00000445
 ,0.00000141,-0.00000736,0.00000280,-0.00052481,0.00025884,-0.00028256,
 0.00005260,-0.00034054,0.00017496,-0.00038274,-0.00214618,0.00015114,-
 0.00027256,-0.00009665,-0.00033344,0.00000430,0.00000160,-0.00000215,-
 0.01145734,-0.03514582,-0.02005333,0.01175476,-0.00059971,-0.03759141,
 0.00044011,0.03819298,-0.00052608,0.00058456,0.00016970,-0.00007415,-0
 .00012226,-0.00002438,0.00002126,0.00003757,0.00000076,-0.00006639,0.0
 0002968,-0.00001835,0.00013164,0.00004738,0.00003873,-0.00000942,0.000
 00393,-0.00000513,-0.00000521,0.00000878,-0.00000924,0.00006165,-0.000
 56131,0.00020298,0.00008561,0.00022925,-0.00011501,0.00006989,0.000740
 29,0.00045143,0.00092847,-0.00080980,-0.00024612,-0.00000946,0.0000001
 8,-0.00000075,0.12470412,-0.06243758,-0.49185726,0.00588888,0.00439253
 ,-0.01293486,-0.13120081,0.05785679,0.50434750\\0.00000534,-0.00000329
 ,-0.00002263,-0.00000845,0.00000067,0.00002249,0.00000032,-0.00001062,
 0.00000743,0.00000771,0.00001983,0.00000533,-0.00002239,-0.00001538,-0
 .00004671,0.00000811,0.00001072,0.00003904,0.00000656,0.00001085,-0.00
 001473,0.00006464,-0.00007852,0.00005696,0.00001666,0.00001794,0.00003
 903,-0.00006595,0.00006475,-0.00001458,-0.00000083,0.00000742,-0.00001
 283,-0.00000538,-0.00000378,-0.00003681,0.00000845,0.00000533,-0.00006
 143,-0.00001671,-0.00004804,0.00006052,0.00000193,0.00002211,-0.000021
 10\\\@


 IF THE FACTS DO NOT CONFORM TO THE THEORY, THEY MUST BE DISPOSED OF.
 Job cpu time:       0 days  1 hours  8 minutes 23.9 seconds.
 Elapsed time:       0 days  0 hours  2 minutes 51.8 seconds.
 File lengths (MBytes):  RWF=    164 Int=      0 D2E=      0 Chk=      9 Scr=      1
 Normal termination of Gaussian 16 at Sun Nov  5 23:41:12 2023.
