 Entering Gaussian System, Link 0=/opt/soft/g16b/g16/g16
 Initial command:
 /opt/soft/g16b/g16/l1.exe "/scratch/gongke2021/bizuo/Gau-16313.inp" -scrdir="/scratch/gongke2021/bizuo/"
 Entering Link 1 = /opt/soft/g16b/g16/l1.exe PID=     16314.
  
 Copyright (c) 1988,1990,1992,1993,1995,1998,2003,2009,2016,
            Gaussian, Inc.  All Rights Reserved.
  
 This is part of the Gaussian(R) 16 program.  It is based on
 the Gaussian(R) 09 system (copyright 2009, Gaussian, Inc.),
 the Gaussian(R) 03 system (copyright 2003, Gaussian, Inc.),
 the Gaussian(R) 98 system (copyright 1998, Gaussian, Inc.),
 the Gaussian(R) 94 system (copyright 1995, Gaussian, Inc.),
 the Gaussian 92(TM) system (copyright 1992, Gaussian, Inc.),
 the Gaussian 90(TM) system (copyright 1990, Gaussian, Inc.),
 the Gaussian 88(TM) system (copyright 1988, Gaussian, Inc.),
 the Gaussian 86(TM) system (copyright 1986, Carnegie Mellon
 University), and the Gaussian 82(TM) system (copyright 1983,
 Carnegie Mellon University). Gaussian is a federally registered
 trademark of Gaussian, Inc.
  
 This software contains proprietary and confidential information,
 including trade secrets, belonging to Gaussian, Inc.
  
 This software is provided under written license and may be
 used, copied, transmitted, or stored only in accord with that
 written license.
  
 The following legend is applicable only to US Government
 contracts under FAR:
  
                    RESTRICTED RIGHTS LEGEND
  
 Use, reproduction and disclosure by the US Government is
 subject to restrictions as set forth in subparagraphs (a)
 and (c) of the Commercial Computer Software - Restricted
 Rights clause in FAR 52.227-19.
  
 Gaussian, Inc.
 340 Quinnipiac St., Bldg. 40, Wallingford CT 06492
  
  
 ---------------------------------------------------------------
 Warning -- This program may not be used in any manner that
 competes with the business of Gaussian, Inc. or will provide
 assistance to any competitor of Gaussian, Inc.  The licensee
 of this program is prohibited from giving any competitor of
 Gaussian, Inc. access to this program.  By using this program,
 the user acknowledges that Gaussian, Inc. is engaged in the
 business of creating and licensing software in the field of
 computational chemistry and represents and warrants to the
 licensee that it is not a competitor of Gaussian, Inc. and that
 it will not use this program in any manner prohibited above.
 ---------------------------------------------------------------
  

 Cite this work as:
 Gaussian 16, Revision A.03,
 M. J. Frisch, G. W. Trucks, H. B. Schlegel, G. E. Scuseria, 
 M. A. Robb, J. R. Cheeseman, G. Scalmani, V. Barone, 
 G. A. Petersson, H. Nakatsuji, X. Li, M. Caricato, A. V. Marenich, 
 J. Bloino, B. G. Janesko, R. Gomperts, B. Mennucci, H. P. Hratchian, 
 J. V. Ortiz, A. F. Izmaylov, J. L. Sonnenberg, D. Williams-Young, 
 F. Ding, F. Lipparini, F. Egidi, J. Goings, B. Peng, A. Petrone, 
 T. Henderson, D. Ranasinghe, V. G. Zakrzewski, J. Gao, N. Rega, 
 G. Zheng, W. Liang, M. Hada, M. Ehara, K. Toyota, R. Fukuda, 
 J. Hasegawa, M. Ishida, T. Nakajima, Y. Honda, O. Kitao, H. Nakai, 
 T. Vreven, K. Throssell, J. A. Montgomery, Jr., J. E. Peralta, 
 F. Ogliaro, M. J. Bearpark, J. J. Heyd, E. N. Brothers, K. N. Kudin, 
 V. N. Staroverov, T. A. Keith, R. Kobayashi, J. Normand, 
 K. Raghavachari, A. P. Rendell, J. C. Burant, S. S. Iyengar, 
 J. Tomasi, M. Cossi, J. M. Millam, M. Klene, C. Adamo, R. Cammi, 
 J. W. Ochterski, R. L. Martin, K. Morokuma, O. Farkas, 
 J. B. Foresman, and D. J. Fox, Gaussian, Inc., Wallingford CT, 2016.
 
 ******************************************
 Gaussian 16:  ES64L-G16RevA.03 25-Dec-2016
                 5-Nov-2023 
 ******************************************
 %mem=10GB
 %nprocshared=20
 Will use up to   20 processors via shared memory.
 -----------------------------------------------------
 # opt freq 6-31+g(d,p) scrf=(smd,solvent=water) m062x
 -----------------------------------------------------
 1/18=20,19=15,26=3,38=1/1,3;
 2/9=110,12=2,17=6,18=5,40=1/2;
 3/5=1,6=6,7=111,11=2,25=1,30=1,70=32201,71=1,72=1,74=-55/1,2,3;
 4//1;
 5/5=2,38=5,53=1/2;
 6/7=2,8=2,9=2,10=2,28=1/1;
 7//1,2,3,16;
 1/18=20,19=15,26=3/3(2);
 2/9=110/2;
 99//99;
 2/9=110/2;
 3/5=1,6=6,7=111,11=2,25=1,30=1,70=32205,71=1,72=1,74=-55/1,2,3;
 4/5=5,16=3,69=1/1;
 5/5=2,38=5,53=1/2;
 7//1,2,3,16;
 1/18=20,19=15,26=3/3(-5);
 2/9=110/2;
 6/7=2,8=2,9=2,10=2,19=2,28=1/1;
 99/9=1/99;
 -------------------
 Title Card Required
 -------------------
 Symbolic Z-matrix:
 Charge = -1 Multiplicity = 2
 N                    -0.83876  -0.84378  -0.00074 
 N                    -0.33775   0.40066  -0.00058 
 C                    -1.40759   1.19547   0.00009 
 C                    -2.6042    0.45027   0.00053 
 C                    -2.18776  -0.8679    0.00006 
 H                    -1.27922   2.26925   0.00016 
 H                    -3.61913   0.81775   0.0011 
 C                     1.13493   0.3411    0.12773 
 O                     2.30327   1.30951   0.04068 
 O                     1.71647  -0.94182   0.04133 
 H                    -0.20673  -1.63533  -0.00019 
 H                    -2.73347  -1.79993   0.00002 
 

 GradGradGradGradGradGradGradGradGradGradGradGradGradGradGradGradGradGrad
 Berny optimization.
 Initialization pass.
                           ----------------------------
                           !    Initial Parameters    !
                           ! (Angstroms and Degrees)  !
 --------------------------                            --------------------------
 ! Name  Definition              Value          Derivative Info.                !
 --------------------------------------------------------------------------------
 ! R1    R(1,2)                  1.3415         estimate D2E/DX2                !
 ! R2    R(1,5)                  1.3492         estimate D2E/DX2                !
 ! R3    R(1,11)                 1.0129         estimate D2E/DX2                !
 ! R4    R(2,3)                  1.3328         estimate D2E/DX2                !
 ! R5    R(2,8)                  1.4794         estimate D2E/DX2                !
 ! R6    R(3,4)                  1.4097         estimate D2E/DX2                !
 ! R7    R(3,6)                  1.0814         estimate D2E/DX2                !
 ! R8    R(4,5)                  1.3824         estimate D2E/DX2                !
 ! R9    R(4,7)                  1.0794         estimate D2E/DX2                !
 ! R10   R(5,12)                 1.08           estimate D2E/DX2                !
 ! R11   R(8,9)                  1.52           estimate D2E/DX2                !
 ! R12   R(8,10)                 1.4112         estimate D2E/DX2                !
 ! A1    A(2,1,5)              112.9546         estimate D2E/DX2                !
 ! A2    A(2,1,11)             119.4637         estimate D2E/DX2                !
 ! A3    A(5,1,11)             127.5816         estimate D2E/DX2                !
 ! A4    A(1,2,3)              104.6793         estimate D2E/DX2                !
 ! A5    A(1,2,8)              109.5379         estimate D2E/DX2                !
 ! A6    A(3,2,8)              145.3869         estimate D2E/DX2                !
 ! A7    A(2,3,4)              111.4778         estimate D2E/DX2                !
 ! A8    A(2,3,6)              119.792          estimate D2E/DX2                !
 ! A9    A(4,3,6)              128.7302         estimate D2E/DX2                !
 ! A10   A(3,4,5)              104.3805         estimate D2E/DX2                !
 ! A11   A(3,4,7)              128.1833         estimate D2E/DX2                !
 ! A12   A(5,4,7)              127.4362         estimate D2E/DX2                !
 ! A13   A(1,5,4)              106.5078         estimate D2E/DX2                !
 ! A14   A(1,5,12)             121.374          estimate D2E/DX2                !
 ! A15   A(4,5,12)             132.1181         estimate D2E/DX2                !
 ! A16   A(2,8,9)              137.2656         estimate D2E/DX2                !
 ! A17   A(2,8,10)             116.1988         estimate D2E/DX2                !
 ! A18   A(9,8,10)             105.0067         estimate D2E/DX2                !
 ! D1    D(5,1,2,3)             -0.0125         estimate D2E/DX2                !
 ! D2    D(5,1,2,8)            174.6823         estimate D2E/DX2                !
 ! D3    D(11,1,2,3)          -179.9323         estimate D2E/DX2                !
 ! D4    D(11,1,2,8)            -5.2375         estimate D2E/DX2                !
 ! D5    D(2,1,5,4)              0.0126         estimate D2E/DX2                !
 ! D6    D(2,1,5,12)           179.9988         estimate D2E/DX2                !
 ! D7    D(11,1,5,4)           179.9245         estimate D2E/DX2                !
 ! D8    D(11,1,5,12)           -0.0893         estimate D2E/DX2                !
 ! D9    D(1,2,3,4)              0.0075         estimate D2E/DX2                !
 ! D10   D(1,2,3,6)           -179.9879         estimate D2E/DX2                !
 ! D11   D(8,2,3,4)           -171.1684         estimate D2E/DX2                !
 ! D12   D(8,2,3,6)              8.8362         estimate D2E/DX2                !
 ! D13   D(1,2,8,9)            171.4549         estimate D2E/DX2                !
 ! D14   D(1,2,8,10)             8.1541         estimate D2E/DX2                !
 ! D15   D(3,2,8,9)            -17.6047         estimate D2E/DX2                !
 ! D16   D(3,2,8,10)           179.0945         estimate D2E/DX2                !
 ! D17   D(2,3,4,5)             -0.0003         estimate D2E/DX2                !
 ! D18   D(2,3,4,7)            179.9991         estimate D2E/DX2                !
 ! D19   D(6,3,4,5)            179.9946         estimate D2E/DX2                !
 ! D20   D(6,3,4,7)             -0.006          estimate D2E/DX2                !
 ! D21   D(3,4,5,1)             -0.0071         estimate D2E/DX2                !
 ! D22   D(3,4,5,12)          -179.9912         estimate D2E/DX2                !
 ! D23   D(7,4,5,1)            179.9936         estimate D2E/DX2                !
 ! D24   D(7,4,5,12)             0.0094         estimate D2E/DX2                !
 --------------------------------------------------------------------------------
 Trust Radius=3.00D-01 FncErr=1.00D-07 GrdErr=1.00D-06 EigMax=2.50D+02 EigMin=1.00D-04
 Number of steps in this run=     64 maximum allowed number of steps=    100.
 GradGradGradGradGradGradGradGradGradGradGradGradGradGradGradGradGradGrad

                          Input orientation:                          
 ---------------------------------------------------------------------
 Center     Atomic      Atomic             Coordinates (Angstroms)
 Number     Number       Type             X           Y           Z
 ---------------------------------------------------------------------
      1          7           0       -0.838764   -0.843778   -0.000744
      2          7           0       -0.337746    0.400657   -0.000575
      3          6           0       -1.407593    1.195467    0.000093
      4          6           0       -2.604200    0.450272    0.000525
      5          6           0       -2.187761   -0.867904    0.000064
      6          1           0       -1.279222    2.269253    0.000163
      7          1           0       -3.619130    0.817748    0.001098
      8          6           0        1.134925    0.341098    0.127729
      9          8           0        2.303268    1.309506    0.040682
     10          8           0        1.716471   -0.941824    0.041331
     11          1           0       -0.206734   -1.635332   -0.000193
     12          1           0       -2.733470   -1.799925    0.000022
 ---------------------------------------------------------------------
                    Distance matrix (angstroms):
                    1          2          3          4          5
     1  N    0.000000
     2  N    1.341506   0.000000
     3  C    2.117094   1.332778   0.000000
     4  C    2.188911   2.266997   1.409675   0.000000
     5  C    1.349213   2.243168   2.205938   1.382393   0.000000
     6  H    3.144037   2.092374   1.081432   2.250391   3.266068
     7  H    3.238998   3.307786   2.243562   1.079408   2.211389
     8  C    2.305620   1.479449   2.685263   3.742881   3.538111
     9  O    3.809293   2.793325   3.712834   4.982282   4.991203
    10  O    2.557461   2.454346   3.785431   4.539580   3.905149
    11  H    1.012926   2.040200   3.074977   3.177670   2.124480
    12  H    2.122293   3.253007   3.275717   2.253907   1.080028
                    6          7          8          9         10
     6  H    0.000000
     7  H    2.753550   0.000000
     8  C    3.092275   4.779568   0.000000
     9  O    3.709041   5.942911   1.520005   0.000000
    10  O    4.391683   5.618394   1.411222   2.326546   0.000000
    11  H    4.049199   4.202624   2.392214   3.869606   2.044846
    12  H    4.321232   2.763441   4.423208   5.919370   4.532109
                   11         12
    11  H    0.000000
    12  H    2.532091   0.000000
 Stoichiometry    C4H4N2O2(1-,2)
 Framework group  C1[X(C4H4N2O2)]
 Deg. of freedom    30
 Full point group                 C1      NOp   1
 Largest Abelian subgroup         C1      NOp   1
 Largest concise Abelian subgroup C1      NOp   1
                         Standard orientation:                         
 ---------------------------------------------------------------------
 Center     Atomic      Atomic             Coordinates (Angstroms)
 Number     Number       Type             X           Y           Z
 ---------------------------------------------------------------------
      1          7           0        0.683666    0.887445   -0.015957
      2          7           0        0.061943   -0.301265   -0.024040
      3          6           0        1.047721   -1.198101   -0.009157
      4          6           0        2.312107   -0.575052    0.008787
      5          6           0        2.028278    0.777880    0.003789
      6          1           0        0.813675   -2.253899   -0.011947
      7          1           0        3.285557   -1.041216    0.023228
      8          6           0       -1.399252   -0.096128    0.083662
      9          8           0       -2.656398   -0.944127   -0.020713
     10          8           0       -1.849643    1.238037   -0.009615
     11          1           0        0.133170    1.737691   -0.023486
     12          1           0        2.663534    1.651287    0.012318
 ---------------------------------------------------------------------
 Rotational constants (GHZ):           5.5083465           1.4743509           1.1636269
 Standard basis: 6-31+G(d,p) (6D, 7F)
 There are   172 symmetry adapted cartesian basis functions of A   symmetry.
 There are   172 symmetry adapted basis functions of A   symmetry.
   172 basis functions,   284 primitive gaussians,   172 cartesian basis functions
    30 alpha electrons       29 beta electrons
       nuclear repulsion energy       344.7743828317 Hartrees.
 NAtoms=   12 NActive=   12 NUniq=   12 SFac= 1.00D+00 NAtFMM=   60 NAOKFM=F Big=F
 Integral buffers will be    131072 words long.
 Raffenetti 2 integral format.
 Two-electron integral symmetry is turned on.
 ------------------------------------------------------------------------------
 Polarizable Continuum Model (PCM)
 =================================
 Model                : PCM.
 Atomic radii         : SMD-Coulomb.
 Polarization charges : Total charges.
 Charge compensation  : None.
 Solution method      : On-the-fly selection.
 Cavity type          : VdW (van der Waals Surface) (Alpha=1.000).
 Cavity algorithm     : GePol (No added spheres)
                        Default sphere list used, NSphG=   12.
                        Lebedev-Laikov grids with approx.  5.0 points / Ang**2.
                        Smoothing algorithm: York/Karplus (Gamma=1.0000).
                        Polarization charges: spherical gaussians, with
                                              point-specific exponents (IZeta= 3).
                        Self-potential: point-specific (ISelfS= 7).
                        Self-field    : sphere-specific E.n sum rule (ISelfD= 2).
 1st derivatives      : Analytical E(r).r(x)/FMM algorithm (CHGder, D1EAlg=3).
                        Cavity 1st derivative terms included.
 Solvent              : Water, Eps=  78.355300 Eps(inf)=   1.777849
 ------------------------------------------------------------------------------
 Spheres list:
 ISph  on   Nord     Re0    Alpha      Xe            Ye            Ze
    1   N      1    1.8900  1.000      0.683666      0.887445     -0.015957
    2   N      2    1.8900  1.000      0.061943     -0.301265     -0.024040
    3   C      3    1.8500  1.000      1.047721     -1.198101     -0.009157
    4   C      4    1.8500  1.000      2.312107     -0.575052      0.008787
    5   C      5    1.8500  1.000      2.028278      0.777880      0.003789
    6   H      6    1.2000  1.000      0.813675     -2.253899     -0.011947
    7   H      7    1.2000  1.000      3.285557     -1.041216      0.023228
    8   C      8    1.8500  1.000     -1.399252     -0.096128      0.083662
    9   O      9    1.5200  1.000     -2.656398     -0.944127     -0.020713
   10   O     10    1.5200  1.000     -1.849643      1.238037     -0.009615
   11   H     11    1.2000  1.000      0.133170      1.737691     -0.023486
   12   H     12    1.2000  1.000      2.663534      1.651287      0.012318
 ------------------------------------------------------------------------------
 ------------------------------------------------------------------------------
 Atomic radii for non-electrostatic terms: SMD-CDS.
 ------------------------------------------------------------------------------
 Nuclear repulsion after PCM non-electrostatic terms =      344.7806663820 Hartrees.
 One-electron integrals computed using PRISM.
 NBasis=   172 RedAO= T EigKep=  5.64D-05  NBF=   172
 NBsUse=   172 1.00D-06 EigRej= -1.00D+00 NBFU=   172
 ExpMin= 4.38D-02 ExpMax= 5.48D+03 ExpMxC= 8.25D+02 IAcc=3 IRadAn=         5 AccDes= 0.00D+00
 Harris functional with IExCor= 1009 and IRadAn=       5 diagonalized for initial guess.
 HarFok:  IExCor= 1009 AccDes= 0.00D+00 IRadAn=         5 IDoV= 1 UseB2=F ITyADJ=14
 ICtDFT=  3500011 ScaDFX=  1.000000  1.000000  1.000000  1.000000
 FoFCou: FMM=F IPFlag=           0 FMFlag=      100000 FMFlg1=           0
         NFxFlg=           0 DoJE=T BraDBF=F KetDBF=T FulRan=T
         wScrn=  0.000000 ICntrl=       500 IOpCl=  0 I1Cent=   200000004 NGrid=           0
         NMat0=    1 NMatS0=      1 NMatT0=    0 NMatD0=    1 NMtDS0=    0 NMtDT0=    0
 Petite list used in FoFCou.
 Initial guess <Sx>= 0.0000 <Sy>= 0.0000 <Sz>= 0.5000 <S**2>= 0.7500 S= 0.5000
 Keep R1 and R2 ints in memory in canonical form, NReq=241382590.
 Requested convergence on RMS density matrix=1.00D-08 within 128 cycles.
 Requested convergence on MAX density matrix=1.00D-06.
 Requested convergence on             energy=1.00D-06.
 No special actions if energy rises.
 Inv3:  Mode=1 IEnd=     3313803.
 Iteration    1 A*A^-1 deviation from unit magnitude is 3.55D-15 for   1048.
 Iteration    1 A*A^-1 deviation from orthogonality  is 3.42D-15 for   1046    892.
 Iteration    1 A^-1*A deviation from unit magnitude is 3.77D-15 for   1048.
 Iteration    1 A^-1*A deviation from orthogonality  is 1.46D-15 for    998    116.
 Error on total polarization charges =  0.06487
 SCF Done:  E(UM062X) =  -414.624155681     A.U. after   19 cycles
            NFock= 19  Conv=0.46D-08     -V/T= 2.0100
 <Sx>= 0.0000 <Sy>= 0.0000 <Sz>= 0.5000 <S**2>= 0.7634 S= 0.5067
 <L.S>= 0.000000000000E+00
 SMD-CDS (non-electrostatic) energy       (kcal/mol) =       3.94
 (included in total energy above)
 Annihilation of the first spin contaminant:
 S**2 before annihilation     0.7634,   after     0.7501

 **********************************************************************

            Population analysis using the SCF density.

 **********************************************************************

 Orbital symmetries:
 Alpha Orbitals:
       Occupied  (A) (A) (A) (A) (A) (A) (A) (A) (A) (A) (A) (A)
                 (A) (A) (A) (A) (A) (A) (A) (A) (A) (A) (A) (A)
                 (A) (A) (A) (A) (A) (A)
       Virtual   (A) (A) (A) (A) (A) (A) (A) (A) (A) (A) (A) (A)
                 (A) (A) (A) (A) (A) (A) (A) (A) (A) (A) (A) (A)
                 (A) (A) (A) (A) (A) (A) (A) (A) (A) (A) (A) (A)
                 (A) (A) (A) (A) (A) (A) (A) (A) (A) (A) (A) (A)
                 (A) (A) (A) (A) (A) (A) (A) (A) (A) (A) (A) (A)
                 (A) (A) (A) (A) (A) (A) (A) (A) (A) (A) (A) (A)
                 (A) (A) (A) (A) (A) (A) (A) (A) (A) (A) (A) (A)
                 (A) (A) (A) (A) (A) (A) (A) (A) (A) (A) (A) (A)
                 (A) (A) (A) (A) (A) (A) (A) (A) (A) (A) (A) (A)
                 (A) (A) (A) (A) (A) (A) (A) (A) (A) (A) (A) (A)
                 (A) (A) (A) (A) (A) (A) (A) (A) (A) (A) (A) (A)
                 (A) (A) (A) (A) (A) (A) (A) (A) (A) (A)
 Beta  Orbitals:
       Occupied  (A) (A) (A) (A) (A) (A) (A) (A) (A) (A) (A) (A)
                 (A) (A) (A) (A) (A) (A) (A) (A) (A) (A) (A) (A)
                 (A) (A) (A) (A) (A)
       Virtual   (A) (A) (A) (A) (A) (A) (A) (A) (A) (A) (A) (A)
                 (A) (A) (A) (A) (A) (A) (A) (A) (A) (A) (A) (A)
                 (A) (A) (A) (A) (A) (A) (A) (A) (A) (A) (A) (A)
                 (A) (A) (A) (A) (A) (A) (A) (A) (A) (A) (A) (A)
                 (A) (A) (A) (A) (A) (A) (A) (A) (A) (A) (A) (A)
                 (A) (A) (A) (A) (A) (A) (A) (A) (A) (A) (A) (A)
                 (A) (A) (A) (A) (A) (A) (A) (A) (A) (A) (A) (A)
                 (A) (A) (A) (A) (A) (A) (A) (A) (A) (A) (A) (A)
                 (A) (A) (A) (A) (A) (A) (A) (A) (A) (A) (A) (A)
                 (A) (A) (A) (A) (A) (A) (A) (A) (A) (A) (A) (A)
                 (A) (A) (A) (A) (A) (A) (A) (A) (A) (A) (A) (A)
                 (A) (A) (A) (A) (A) (A) (A) (A) (A) (A) (A)
 The electronic state is 2-A.
 Alpha  occ. eigenvalues --  -19.59806 -19.59710 -14.89285 -14.84398 -10.68093
 Alpha  occ. eigenvalues --  -10.59655 -10.59325 -10.55894  -1.22309  -1.07106
 Alpha  occ. eigenvalues --   -0.98087  -0.96672  -0.91331  -0.75506  -0.71088
 Alpha  occ. eigenvalues --   -0.70033  -0.59407  -0.57288  -0.53772  -0.51165
 Alpha  occ. eigenvalues --   -0.50588  -0.46910  -0.43581  -0.43484  -0.36315
 Alpha  occ. eigenvalues --   -0.35585  -0.33774  -0.32321  -0.29365  -0.16289
 Alpha virt. eigenvalues --    0.01973   0.03486   0.04081   0.04741   0.05267
 Alpha virt. eigenvalues --    0.06032   0.06649   0.07339   0.07971   0.10198
 Alpha virt. eigenvalues --    0.10934   0.11550   0.11682   0.13080   0.14106
 Alpha virt. eigenvalues --    0.15047   0.16096   0.16219   0.18226   0.18703
 Alpha virt. eigenvalues --    0.20148   0.20503   0.23273   0.24139   0.24782
 Alpha virt. eigenvalues --    0.25364   0.26121   0.26473   0.27261   0.27940
 Alpha virt. eigenvalues --    0.29974   0.30341   0.30775   0.31082   0.31958
 Alpha virt. eigenvalues --    0.32832   0.35055   0.35389   0.38159   0.39525
 Alpha virt. eigenvalues --    0.39842   0.41476   0.44187   0.45736   0.50749
 Alpha virt. eigenvalues --    0.57409   0.71165   0.71891   0.74082   0.74572
 Alpha virt. eigenvalues --    0.78240   0.80121   0.84854   0.86582   0.88578
 Alpha virt. eigenvalues --    0.92401   0.93895   0.95309   0.96418   0.98604
 Alpha virt. eigenvalues --    0.99252   1.02979   1.06178   1.12935   1.15182
 Alpha virt. eigenvalues --    1.19216   1.20096   1.23175   1.25361   1.27277
 Alpha virt. eigenvalues --    1.28500   1.30854   1.33658   1.34168   1.36252
 Alpha virt. eigenvalues --    1.39314   1.40149   1.41347   1.42345   1.43845
 Alpha virt. eigenvalues --    1.44214   1.48193   1.54261   1.56758   1.58405
 Alpha virt. eigenvalues --    1.64044   1.73813   1.76661   1.79744   1.80012
 Alpha virt. eigenvalues --    1.84513   1.91228   1.92529   1.93774   1.94323
 Alpha virt. eigenvalues --    1.96444   1.98850   2.03800   2.05863   2.07413
 Alpha virt. eigenvalues --    2.10305   2.12587   2.15007   2.17934   2.22602
 Alpha virt. eigenvalues --    2.23123   2.24484   2.31614   2.37015   2.38753
 Alpha virt. eigenvalues --    2.40660   2.44575   2.46622   2.48925   2.51576
 Alpha virt. eigenvalues --    2.54152   2.60666   2.61416   2.63396   2.69351
 Alpha virt. eigenvalues --    2.74217   2.78850   2.80549   2.83834   2.90255
 Alpha virt. eigenvalues --    2.95468   2.99773   3.12112   3.17731   3.24774
 Alpha virt. eigenvalues --    3.31840   3.40980   3.63856   3.82662   4.08854
 Alpha virt. eigenvalues --    4.19889   4.28836   4.36952   4.42498   4.49996
 Alpha virt. eigenvalues --    4.65634   4.78421
  Beta  occ. eigenvalues --  -19.59619 -19.59449 -14.89423 -14.84229 -10.67611
  Beta  occ. eigenvalues --  -10.59528 -10.59110 -10.55943  -1.22044  -1.06102
  Beta  occ. eigenvalues --   -0.97319  -0.96225  -0.90838  -0.74384  -0.70813
  Beta  occ. eigenvalues --   -0.69614  -0.58622  -0.56528  -0.53412  -0.50559
  Beta  occ. eigenvalues --   -0.50265  -0.46508  -0.42721  -0.40678  -0.35336
  Beta  occ. eigenvalues --   -0.34688  -0.32373  -0.29758  -0.29032
  Beta virt. eigenvalues --   -0.01180   0.02024   0.04043   0.04510   0.04765
  Beta virt. eigenvalues --    0.06099   0.06652   0.06807   0.07225   0.08813
  Beta virt. eigenvalues --    0.10319   0.10969   0.11478   0.11859   0.13126
  Beta virt. eigenvalues --    0.14380   0.15233   0.16057   0.16593   0.18430
  Beta virt. eigenvalues --    0.18923   0.20167   0.20582   0.23198   0.23551
  Beta virt. eigenvalues --    0.24856   0.25530   0.26301   0.26657   0.27465
  Beta virt. eigenvalues --    0.27983   0.30008   0.30449   0.30837   0.31267
  Beta virt. eigenvalues --    0.31874   0.33022   0.35141   0.35317   0.38194
  Beta virt. eigenvalues --    0.39731   0.40043   0.41494   0.44611   0.46089
  Beta virt. eigenvalues --    0.51152   0.57909   0.71451   0.72902   0.74812
  Beta virt. eigenvalues --    0.75659   0.78788   0.82612   0.85410   0.87171
  Beta virt. eigenvalues --    0.88963   0.92721   0.94319   0.95674   0.97001
  Beta virt. eigenvalues --    0.98772   0.99431   1.03154   1.06340   1.13297
  Beta virt. eigenvalues --    1.15351   1.19858   1.20979   1.24024   1.26225
  Beta virt. eigenvalues --    1.28330   1.28930   1.31179   1.34402   1.34787
  Beta virt. eigenvalues --    1.36761   1.40134   1.40461   1.41567   1.42686
  Beta virt. eigenvalues --    1.44117   1.44788   1.49092   1.55059   1.57746
  Beta virt. eigenvalues --    1.58627   1.64122   1.74451   1.77460   1.79687
  Beta virt. eigenvalues --    1.80835   1.85010   1.91688   1.92981   1.94106
  Beta virt. eigenvalues --    1.94917   1.96895   1.99344   2.04766   2.06473
  Beta virt. eigenvalues --    2.08003   2.10905   2.13057   2.15703   2.18761
  Beta virt. eigenvalues --    2.22901   2.23933   2.25275   2.32444   2.38073
  Beta virt. eigenvalues --    2.39454   2.41359   2.45308   2.47923   2.49627
  Beta virt. eigenvalues --    2.52097   2.54595   2.61523   2.62004   2.64324
  Beta virt. eigenvalues --    2.69842   2.75272   2.79538   2.80882   2.84541
  Beta virt. eigenvalues --    2.91095   2.95971   3.00285   3.12736   3.18503
  Beta virt. eigenvalues --    3.25210   3.32653   3.41653   3.64634   3.83300
  Beta virt. eigenvalues --    4.09016   4.19984   4.29351   4.36993   4.43364
  Beta virt. eigenvalues --    4.52101   4.68000   4.79479
          Condensed to atoms (all electrons):
               1          2          3          4          5          6
     1  N    6.947029   0.089329   0.055711  -0.190951   0.149979   0.016495
     2  N    0.089329   6.864872   0.195387  -0.061950   0.059540  -0.050766
     3  C    0.055711   0.195387   5.507672   0.364166  -0.071982   0.396004
     4  C   -0.190951  -0.061950   0.364166   5.089794   0.470715  -0.017700
     5  C    0.149979   0.059540  -0.071982   0.470715   5.291006  -0.002590
     6  H    0.016495  -0.050766   0.396004  -0.017700  -0.002590   0.425501
     7  H    0.004892   0.002602  -0.008846   0.352230  -0.007527  -0.000857
     8  C   -0.065246   0.093025  -0.136496  -0.018932  -0.016066  -0.000430
     9  O    0.018364  -0.086991  -0.013124  -0.002015   0.000048  -0.000006
    10  O   -0.010141  -0.109486   0.016270   0.002735   0.003023  -0.000163
    11  H    0.303431  -0.014469  -0.003111   0.005160  -0.008924  -0.000041
    12  H   -0.052764   0.010679   0.001940  -0.018439   0.394957  -0.000088
               7          8          9         10         11         12
     1  N    0.004892  -0.065246   0.018364  -0.010141   0.303431  -0.052764
     2  N    0.002602   0.093025  -0.086991  -0.109486  -0.014469   0.010679
     3  C   -0.008846  -0.136496  -0.013124   0.016270  -0.003111   0.001940
     4  C    0.352230  -0.018932  -0.002015   0.002735   0.005160  -0.018439
     5  C   -0.007527  -0.016066   0.000048   0.003023  -0.008924   0.394957
     6  H   -0.000857  -0.000430  -0.000006  -0.000163  -0.000041  -0.000088
     7  H    0.430275  -0.001032  -0.000002   0.000035  -0.000091  -0.000700
     8  C   -0.001032   5.178958   0.257358   0.240565  -0.001020  -0.000010
     9  O   -0.000002   0.257358   8.900808  -0.154952   0.001276   0.000010
    10  O    0.000035   0.240565  -0.154952   8.872027   0.021107   0.000058
    11  H   -0.000091  -0.001020   0.001276   0.021107   0.276318  -0.001492
    12  H   -0.000700  -0.000010   0.000010   0.000058  -0.001492   0.420353
          Atomic-Atomic Spin Densities.
               1          2          3          4          5          6
     1  N    0.256332  -0.066089   0.084114  -0.009828  -0.120832  -0.000555
     2  N   -0.066089  -0.034511  -0.100299   0.011660   0.039839   0.001896
     3  C    0.084114  -0.100299   0.502809  -0.078777  -0.074213  -0.004094
     4  C   -0.009828   0.011660  -0.078777  -0.043124   0.057668   0.001476
     5  C   -0.120832   0.039839  -0.074213   0.057668   0.281366   0.000260
     6  H   -0.000555   0.001896  -0.004094   0.001476   0.000260  -0.012376
     7  H   -0.000364   0.000215   0.000405  -0.002259   0.002052  -0.000017
     8  C   -0.113091   0.115002  -0.080471  -0.003243   0.022786   0.000600
     9  O    0.005641  -0.009917   0.009906  -0.000140  -0.001360   0.000021
    10  O    0.027946  -0.024245   0.010799  -0.001235  -0.005639   0.000025
    11  H   -0.000220  -0.001029   0.000730  -0.000461  -0.000632   0.000001
    12  H    0.001232  -0.000446  -0.000313   0.003211  -0.004336   0.000002
               7          8          9         10         11         12
     1  N   -0.000364  -0.113091   0.005641   0.027946  -0.000220   0.001232
     2  N    0.000215   0.115002  -0.009917  -0.024245  -0.001029  -0.000446
     3  C    0.000405  -0.080471   0.009906   0.010799   0.000730  -0.000313
     4  C   -0.002259  -0.003243  -0.000140  -0.001235  -0.000461   0.003211
     5  C    0.002052   0.022786  -0.001360  -0.005639  -0.000632  -0.004336
     6  H   -0.000017   0.000600   0.000021   0.000025   0.000001   0.000002
     7  H    0.001167   0.000097  -0.000001  -0.000001   0.000001   0.000009
     8  C    0.000097   0.780175  -0.100929  -0.138678   0.001164   0.000158
     9  O   -0.000001  -0.100929   0.120448   0.024766  -0.000059  -0.000001
    10  O   -0.000001  -0.138678   0.024766   0.199123   0.000134   0.000005
    11  H    0.000001   0.001164  -0.000059   0.000134  -0.003826   0.000042
    12  H    0.000009   0.000158  -0.000001   0.000005   0.000042  -0.007753
 Mulliken charges and spin densities:
               1          2
     1  N   -0.266129   0.064285
     2  N    0.008227  -0.067925
     3  C   -0.303592   0.270595
     4  C    0.025187  -0.065052
     5  C   -0.262181   0.196958
     6  H    0.234640  -0.012760
     7  H    0.229021   0.001303
     8  C    0.469327   0.483569
     9  O   -0.920774   0.048375
    10  O   -0.881077   0.092999
    11  H    0.421856  -0.004157
    12  H    0.245496  -0.008190
 Sum of Mulliken charges =  -1.00000   1.00000
 Mulliken charges and spin densities with hydrogens summed into heavy atoms:
               1          2
     1  N    0.155727   0.060128
     2  N    0.008227  -0.067925
     3  C   -0.068953   0.257835
     4  C    0.254207  -0.063749
     5  C   -0.016685   0.188768
     8  C    0.469327   0.483569
     9  O   -0.920774   0.048375
    10  O   -0.881077   0.092999
 Electronic spatial extent (au):  <R**2>=            969.1823
 Charge=             -1.0000 electrons
 Dipole moment (field-independent basis, Debye):
    X=             18.9607    Y=              0.8720    Z=              0.0815  Tot=             18.9809
 Quadrupole moment (field-independent basis, Debye-Ang):
   XX=            -83.6493   YY=            -50.5572   ZZ=            -52.2960
   XY=             -0.8642   XZ=             -0.1571   YZ=             -0.0838
 Traceless Quadrupole moment (field-independent basis, Debye-Ang):
   XX=            -21.4818   YY=             11.6103   ZZ=              9.8714
   XY=             -0.8642   XZ=             -0.1571   YZ=             -0.0838
 Octapole moment (field-independent basis, Debye-Ang**2):
  XXX=            140.7520  YYY=              5.4642  ZZZ=             -0.4379  XYY=             38.0366
  XXY=             15.9227  XXZ=              0.8459  XZZ=             -0.4986  YZZ=              2.1283
  YYZ=             -0.0056  XYZ=              0.0054
 Hexadecapole moment (field-independent basis, Debye-Ang**3):
 XXXX=          -1161.2074 YYYY=           -276.1887 ZZZZ=            -60.2196 XXXY=            -42.8188
 XXXZ=             -0.6408 YYYX=              4.3489 YYYZ=             -0.5387 ZZZX=              0.1522
 ZZZY=             -0.1540 XXYY=           -245.5187 XXZZ=           -191.4477 YYZZ=            -66.0890
 XXYZ=             -0.3359 YYXZ=              0.1554 ZZXY=              0.1693
 N-N= 3.447806663820D+02 E-N=-1.668659038318D+03  KE= 4.105302416068D+02
                          Isotropic Fermi Contact Couplings
        Atom                 a.u.       MegaHertz       Gauss      10(-4) cm-1
     1  N(14)              0.02152       6.95407       2.48139       2.31963
     2  N(14)             -0.03268     -10.55844      -3.76751      -3.52192
     3  C(13)              0.04402      49.48763      17.65842      16.50730
     4  C(13)             -0.01653     -18.58468      -6.63148      -6.19918
     5  C(13)              0.02739      30.79515      10.98847      10.27216
     6  H(1)              -0.00432     -19.32018      -6.89392      -6.44452
     7  H(1)               0.00031       1.40058       0.49976       0.46718
     8  C(13)              0.15023     168.89048      60.26432      56.33580
     9  O(17)              0.03018     -18.29689      -6.52879      -6.10319
    10  O(17)              0.03464     -20.99828      -7.49271      -7.00427
    11  H(1)              -0.00216      -9.65236      -3.44420      -3.21968
    12  H(1)              -0.00277     -12.36599      -4.41249      -4.12485
 --------------------------------------------------------
       Center         ----  Spin Dipole Couplings  ----
                      3XX-RR        3YY-RR        3ZZ-RR
 --------------------------------------------------------
     1   Atom       -0.118849     -0.119286      0.238135
     2   Atom        0.084545      0.055273     -0.139818
     3   Atom       -0.139993     -0.133075      0.273067
     4   Atom        0.017200      0.017247     -0.034447
     5   Atom       -0.088448     -0.089344      0.177791
     6   Atom       -0.017045      0.020073     -0.003028
     7   Atom        0.001710      0.001864     -0.003574
     8   Atom       -0.267750     -0.261548      0.529297
     9   Atom       -0.230531     -0.175703      0.406235
    10   Atom       -0.248075     -0.287120      0.535195
    11   Atom        0.000081      0.007809     -0.007890
    12   Atom       -0.003751      0.006072     -0.002322
 --------------------------------------------------------
                        XY            XZ            YZ
 --------------------------------------------------------
     1   Atom        0.003137     -0.001286      0.014862
     2   Atom       -0.007626      0.057835      0.002515
     3   Atom        0.001693      0.003712     -0.010370
     4   Atom       -0.001429      0.002728      0.000171
     5   Atom        0.002419      0.001757      0.001325
     6   Atom        0.005683     -0.000430     -0.000145
     7   Atom       -0.001352      0.000056      0.000157
     8   Atom       -0.001383      0.072287     -0.043764
     9   Atom       -0.036153      0.107494      0.017053
    10   Atom        0.023836      0.033049     -0.014370
    11   Atom       -0.006312     -0.000637     -0.000846
    12   Atom        0.014480      0.000140      0.000028
 --------------------------------------------------------


 ---------------------------------------------------------------------------------
              Anisotropic Spin Dipole Couplings in Principal Axis System
 ---------------------------------------------------------------------------------

       Atom             a.u.   MegaHertz   Gauss  10(-4) cm-1        Axes

              Baa    -0.1226    -4.729    -1.687    -1.577 -0.6471  0.7617 -0.0337
     1 N(14)  Bbb    -0.1161    -4.480    -1.598    -1.494  0.7624  0.6466 -0.0244
              Bcc     0.2388     9.208     3.286     3.072 -0.0032  0.0414  0.9991
 
              Baa    -0.1539    -5.937    -2.118    -1.980 -0.2362 -0.0203  0.9715
     2 N(14)  Bbb     0.0543     2.095     0.747     0.699  0.1432  0.9881  0.0555
              Bcc     0.0996     3.842     1.371     1.282  0.9611 -0.1522  0.2305
 
              Baa    -0.1405   -18.850    -6.726    -6.288  0.9700 -0.2427 -0.0148
     3 C(13)  Bbb    -0.1329   -17.833    -6.363    -5.948  0.2430  0.9698  0.0226
              Bcc     0.2734    36.683    13.089    12.236  0.0089 -0.0255  0.9996
 
              Baa    -0.0346    -4.642    -1.656    -1.548 -0.0527 -0.0048  0.9986
     4 C(13)  Bbb     0.0159     2.131     0.760     0.711  0.6939  0.7190  0.0401
              Bcc     0.0187     2.511     0.896     0.838  0.7181 -0.6950  0.0346
 
              Baa    -0.0914   -12.259    -4.374    -4.089 -0.6396  0.7687  0.0004
     5 C(13)  Bbb    -0.0865   -11.601    -4.140    -3.870  0.7687  0.6396 -0.0083
              Bcc     0.1778    23.860     8.514     7.959  0.0066  0.0050  1.0000
 
              Baa    -0.0179    -9.554    -3.409    -3.187  0.9886 -0.1478  0.0271
     6 H(1)   Bbb    -0.0030    -1.611    -0.575    -0.537 -0.0255  0.0126  0.9996
              Bcc     0.0209    11.165     3.984     3.724  0.1481  0.9889 -0.0087
 
              Baa    -0.0036    -1.910    -0.682    -0.637 -0.0192 -0.0335  0.9993
     7 H(1)   Bbb     0.0004     0.234     0.083     0.078  0.7271  0.6855  0.0370
              Bcc     0.0031     1.676     0.598     0.559 -0.6863  0.7273  0.0112
 
              Baa    -0.2748   -36.881   -13.160   -12.302  0.9689 -0.2265 -0.0994
     8 C(13)  Bbb    -0.2633   -35.338   -12.610   -11.788  0.2306  0.9725  0.0327
              Bcc     0.5382    72.220    25.770    24.090  0.0893 -0.0546  0.9945
 
              Baa    -0.2648    19.161     6.837     6.391  0.9047  0.3968 -0.1550
     9 O(17)  Bbb    -0.1593    11.526     4.113     3.845 -0.3944  0.9177  0.0473
              Bcc     0.4241   -30.687   -10.950   -10.236  0.1610  0.0183  0.9868
 
              Baa    -0.2993    21.657     7.728     7.224 -0.4390  0.8979  0.0328
    10 O(17)  Bbb    -0.2375    17.186     6.132     5.733  0.8975  0.4399 -0.0302
              Bcc     0.5368   -38.843   -13.860   -12.957  0.0416 -0.0162  0.9990
 
              Baa    -0.0081    -4.323    -1.543    -1.442  0.1676  0.1186  0.9787
    11 H(1)   Bbb    -0.0033    -1.736    -0.619    -0.579  0.8569  0.4733 -0.2041
              Bcc     0.0114     6.059     2.162     2.021 -0.4874  0.8729 -0.0222
 
              Baa    -0.0141    -7.539    -2.690    -2.515  0.8128 -0.5825 -0.0082
    12 H(1)   Bbb    -0.0023    -1.239    -0.442    -0.413  0.0034 -0.0093  1.0000
              Bcc     0.0165     8.778     3.132     2.928  0.5826  0.8128  0.0056
 

 ---------------------------------------------------------------------------------

 D1PCM: PCM CHGder 1st derivatives, ID1Alg=3 FixD1E=F DoIter=F DoCFld=F I1PDM=0.
 Calling FoFJK, ICntrl=      2127 FMM=F ISym2X=0 I1Cent= 0 IOpClX= 1 NMat=1 NMatS=1 NMatT=0.
 ***** Axes restored to original set *****
 -------------------------------------------------------------------
 Center     Atomic                   Forces (Hartrees/Bohr)
 Number     Number              X              Y              Z
 -------------------------------------------------------------------
      1        7          -0.009654451   -0.042000516   -0.002816765
      2        7           0.073828429   -0.031664665   -0.001350182
      3        6          -0.022232616    0.053440614    0.000762890
      4        6           0.013607044   -0.003851179    0.000372344
      5        6          -0.004862605    0.010172752    0.000941492
      6        1           0.000285806   -0.001255079   -0.000132334
      7        1           0.001796315    0.002450713   -0.000051709
      8        6           0.118705606   -0.022316726   -0.005868959
      9        8          -0.113413199   -0.030171514    0.002872779
     10        8          -0.067558609    0.062927567    0.005349517
     11        1           0.007508737    0.002356563   -0.000289142
     12        1           0.001989543   -0.000088528    0.000210070
 -------------------------------------------------------------------
 Cartesian Forces:  Max     0.118705606 RMS     0.036905824

 GradGradGradGradGradGradGradGradGradGradGradGradGradGradGradGradGradGrad
 Berny optimization.
 FormGI is forming the generalized inverse of G from B-inverse, IUseBI=4.
 Internal  Forces:  Max     0.106576588 RMS     0.026704454
 Search for a local minimum.
 Step number   1 out of a maximum of   64
 All quantities printed in internal units (Hartrees-Bohrs-Radians)
 Mixed Optimization -- RFO/linear search
 Second derivative matrix not updated -- first step.
 ITU=  0
     Eigenvalues ---    0.00641   0.00914   0.01745   0.02112   0.02194
     Eigenvalues ---    0.02211   0.02269   0.02340   0.02366   0.16000
     Eigenvalues ---    0.16000   0.16000   0.16000   0.22000   0.23142
     Eigenvalues ---    0.24613   0.25000   0.25000   0.30366   0.34633
     Eigenvalues ---    0.35822   0.35991   0.36066   0.40749   0.43810
     Eigenvalues ---    0.45074   0.45486   0.51490   0.54526   0.57402
 RFO step:  Lambda=-9.55485387D-02 EMin= 6.40818350D-03
 Linear search not attempted -- first point.
 Maximum step size (   0.300) exceeded in Quadratic search.
    -- Step size scaled by   0.608
 Iteration  1 RMS(Cart)=  0.07860971 RMS(Int)=  0.00448253
 Iteration  2 RMS(Cart)=  0.00473141 RMS(Int)=  0.00010216
 Iteration  3 RMS(Cart)=  0.00002499 RMS(Int)=  0.00010068
 Iteration  4 RMS(Cart)=  0.00000000 RMS(Int)=  0.00010068
 Variable       Old X    -DE/DX   Delta X   Delta X   Delta X     New X
                                 (Linear)    (Quad)   (Total)
    R1        2.53508   0.02157   0.00000   0.02148   0.02146   2.55653
    R2        2.54964   0.00363   0.00000   0.00316   0.00318   2.55282
    R3        1.91415   0.00284   0.00000   0.00313   0.00313   1.91729
    R4        2.51858   0.02947   0.00000   0.02756   0.02753   2.54611
    R5        2.79575  -0.06218   0.00000  -0.08557  -0.08557   2.71018
    R6        2.66390  -0.00866   0.00000  -0.01082  -0.01082   2.65308
    R7        2.04361  -0.00120   0.00000  -0.00161  -0.00161   2.04200
    R8        2.61234   0.00866   0.00000   0.00679   0.00683   2.61917
    R9        2.03979  -0.00085   0.00000  -0.00113  -0.00113   2.03865
   R10        2.04096  -0.00094   0.00000  -0.00125  -0.00125   2.03970
   R11        2.87239  -0.10658   0.00000  -0.16233  -0.16233   2.71006
   R12        2.66682  -0.08535   0.00000  -0.09725  -0.09725   2.56958
    A1        1.97143  -0.01770   0.00000  -0.03099  -0.03100   1.94043
    A2        2.08504   0.00185   0.00000  -0.00116  -0.00116   2.08388
    A3        2.22672   0.01585   0.00000   0.03214   0.03215   2.25887
    A4        1.82700   0.01272   0.00000   0.02889   0.02886   1.85586
    A5        1.91180   0.02698   0.00000   0.04503   0.04510   1.95690
    A6        2.53748  -0.03995   0.00000  -0.07421  -0.07421   2.46327
    A7        1.94565  -0.01601   0.00000  -0.02919  -0.02923   1.91643
    A8        2.09077   0.00753   0.00000   0.01347   0.01349   2.10425
    A9        2.24677   0.00848   0.00000   0.01572   0.01574   2.26251
   A10        1.82178   0.01233   0.00000   0.01858   0.01861   1.84039
   A11        2.23722  -0.00918   0.00000  -0.01647  -0.01648   2.22074
   A12        2.22418  -0.00315   0.00000  -0.00211  -0.00213   2.22205
   A13        1.85891   0.00866   0.00000   0.01271   0.01275   1.87167
   A14        2.11838  -0.00609   0.00000  -0.01054  -0.01056   2.10781
   A15        2.30590  -0.00257   0.00000  -0.00217  -0.00219   2.30371
   A16        2.39574  -0.06455   0.00000  -0.11423  -0.11456   2.28118
   A17        2.02805  -0.01716   0.00000  -0.03086  -0.03119   1.99686
   A18        1.83271   0.07853   0.00000   0.13751   0.13717   1.96988
    D1       -0.00022   0.00003   0.00000  -0.00295  -0.00302  -0.00324
    D2        3.04878  -0.00492   0.00000  -0.01105  -0.01077   3.03801
    D3       -3.14041   0.00104   0.00000   0.00062   0.00047  -3.13994
    D4       -0.09141  -0.00390   0.00000  -0.00747  -0.00728  -0.09869
    D5        0.00022  -0.00019   0.00000   0.00192   0.00196   0.00218
    D6        3.14157   0.00028   0.00000   0.00212   0.00213  -3.13949
    D7        3.14028  -0.00132   0.00000  -0.00204  -0.00201   3.13826
    D8       -0.00156  -0.00086   0.00000  -0.00185  -0.00185  -0.00341
    D9        0.00013   0.00015   0.00000   0.00283   0.00288   0.00301
   D10       -3.14138   0.00056   0.00000   0.00244   0.00245  -3.13893
   D11       -2.98745  -0.00205   0.00000  -0.00281  -0.00269  -2.99015
   D12        0.15422  -0.00164   0.00000  -0.00320  -0.00312   0.15110
   D13        2.99245  -0.00174   0.00000  -0.00864  -0.00853   2.98392
   D14        0.14232   0.00092   0.00000   0.00684   0.00687   0.14918
   D15       -0.30726  -0.00048   0.00000  -0.00419  -0.00421  -0.31147
   D16        3.12579   0.00219   0.00000   0.01129   0.01119   3.13697
   D17       -0.00000  -0.00026   0.00000  -0.00174  -0.00173  -0.00173
   D18        3.14158   0.00001   0.00000  -0.00098  -0.00100   3.14058
   D19        3.14150  -0.00072   0.00000  -0.00130  -0.00125   3.14025
   D20       -0.00011  -0.00046   0.00000  -0.00054  -0.00052  -0.00062
   D21       -0.00012   0.00026   0.00000  -0.00011  -0.00014  -0.00026
   D22       -3.14144  -0.00028   0.00000  -0.00032  -0.00033   3.14142
   D23        3.14148  -0.00000   0.00000  -0.00086  -0.00087   3.14061
   D24        0.00016  -0.00054   0.00000  -0.00108  -0.00106  -0.00089
         Item               Value     Threshold  Converged?
 Maximum Force            0.106577     0.000450     NO 
 RMS     Force            0.026704     0.000300     NO 
 Maximum Displacement     0.422655     0.001800     NO 
 RMS     Displacement     0.078010     0.001200     NO 
 Predicted change in Energy=-4.475772D-02
 GradGradGradGradGradGradGradGradGradGradGradGradGradGradGradGradGradGrad

                          Input orientation:                          
 ---------------------------------------------------------------------
 Center     Atomic      Atomic             Coordinates (Angstroms)
 Number     Number       Type             X           Y           Z
 ---------------------------------------------------------------------
      1          7           0       -0.829198   -0.903469   -0.003536
      2          7           0       -0.307555    0.344763    0.002290
      3          6           0       -1.354442    1.192917    0.002944
      4          6           0       -2.555540    0.465981    0.001418
      5          6           0       -2.179628   -0.868068   -0.002508
      6          1           0       -1.195681    2.261768    0.004775
      7          1           0       -3.558746    0.862721    0.002358
      8          6           0        1.120060    0.332867    0.138700
      9          8           0        2.079608    1.392174    0.021289
     10          8           0        1.682731   -0.901884    0.050709
     11          1           0       -0.205647   -1.703822   -0.003554
     12          1           0       -2.755919   -1.780709   -0.004691
 ---------------------------------------------------------------------
                    Distance matrix (angstroms):
                    1          2          3          4          5
     1  N    0.000000
     2  N    1.352859   0.000000
     3  C    2.161193   1.347344   0.000000
     4  C    2.203559   2.251251   1.403950   0.000000
     5  C    1.350895   2.230614   2.220050   1.386006   0.000000
     6  H    3.186394   2.112743   1.080580   2.252572   3.280866
     7  H    3.251137   3.292191   2.228898   1.078808   2.213057
     8  C    2.312653   1.434167   2.623218   3.680571   3.514275
     9  O    3.705637   2.606910   3.439875   4.726820   4.821862
    10  O    2.512515   2.348981   3.689836   4.453810   3.862874
    11  H    1.014584   2.051127   3.116226   3.198447   2.143615
    12  H    2.117028   3.242247   3.287346   2.255616   1.079365
                    6          7          8          9         10
     6  H    0.000000
     7  H    2.746164   0.000000
     8  C    3.016828   4.710686   0.000000
     9  O    3.388803   5.663189   1.434102   0.000000
    10  O    4.277390   5.530755   1.359761   2.328321   0.000000
    11  H    4.087315   4.222612   2.434304   3.848142   2.052320
    12  H    4.333135   2.762662   4.417123   5.783613   4.525154
                   11         12
    11  H    0.000000
    12  H    2.551431   0.000000
 Stoichiometry    C4H4N2O2(1-,2)
 Framework group  C1[X(C4H4N2O2)]
 Deg. of freedom    30
 Full point group                 C1      NOp   1
 Largest Abelian subgroup         C1      NOp   1
 Largest concise Abelian subgroup C1      NOp   1
                         Standard orientation:                         
 ---------------------------------------------------------------------
 Center     Atomic      Atomic             Coordinates (Angstroms)
 Number     Number       Type             X           Y           Z
 ---------------------------------------------------------------------
      1          7           0        0.679630    0.940154   -0.021759
      2          7           0        0.014562   -0.237943   -0.020957
      3          6           0        0.954148   -1.203458   -0.003764
      4          6           0        2.232413   -0.623017    0.010411
      5          6           0        2.016344    0.745992   -0.001437
      6          1           0        0.670584   -2.246167   -0.002135
      7          1           0        3.181793   -1.135119    0.026398
      8          6           0       -1.403473   -0.057539    0.095090
      9          8           0       -2.479388   -0.996906   -0.033930
     10          8           0       -1.815509    1.234552   -0.003281
     11          1           0        0.154753    1.808357   -0.032196
     12          1           0        2.696096    1.584412    0.002829
 ---------------------------------------------------------------------
 Rotational constants (GHZ):           5.3450813           1.5870966           1.2245850
 Standard basis: 6-31+G(d,p) (6D, 7F)
 There are   172 symmetry adapted cartesian basis functions of A   symmetry.
 There are   172 symmetry adapted basis functions of A   symmetry.
   172 basis functions,   284 primitive gaussians,   172 cartesian basis functions
    30 alpha electrons       29 beta electrons
       nuclear repulsion energy       349.8386670829 Hartrees.
 NAtoms=   12 NActive=   12 NUniq=   12 SFac= 1.00D+00 NAtFMM=   60 NAOKFM=F Big=F
 Integral buffers will be    131072 words long.
 Raffenetti 2 integral format.
 Two-electron integral symmetry is turned on.
 ------------------------------------------------------------------------------
 Polarizable Continuum Model (PCM)
 =================================
 Model                : PCM.
 Atomic radii         : SMD-Coulomb.
 Polarization charges : Total charges.
 Charge compensation  : None.
 Solution method      : On-the-fly selection.
 Cavity type          : VdW (van der Waals Surface) (Alpha=1.000).
 Cavity algorithm     : GePol (No added spheres)
                        Default sphere list used, NSphG=   12.
                        Lebedev-Laikov grids with approx.  5.0 points / Ang**2.
                        Smoothing algorithm: York/Karplus (Gamma=1.0000).
                        Polarization charges: spherical gaussians, with
                                              point-specific exponents (IZeta= 3).
                        Self-potential: point-specific (ISelfS= 7).
                        Self-field    : sphere-specific E.n sum rule (ISelfD= 2).
 1st derivatives      : Analytical E(r).r(x)/FMM algorithm (CHGder, D1EAlg=3).
                        Cavity 1st derivative terms included.
 Solvent              : Water, Eps=  78.355300 Eps(inf)=   1.777849
 ------------------------------------------------------------------------------
 Spheres list:
 ISph  on   Nord     Re0    Alpha      Xe            Ye            Ze
    1   N      1    1.8900  1.000      0.679630      0.940154     -0.021759
    2   N      2    1.8900  1.000      0.014562     -0.237943     -0.020957
    3   C      3    1.8500  1.000      0.954148     -1.203458     -0.003764
    4   C      4    1.8500  1.000      2.232413     -0.623017      0.010411
    5   C      5    1.8500  1.000      2.016344      0.745992     -0.001437
    6   H      6    1.2000  1.000      0.670584     -2.246167     -0.002135
    7   H      7    1.2000  1.000      3.181793     -1.135119      0.026398
    8   C      8    1.8500  1.000     -1.403473     -0.057539      0.095090
    9   O      9    1.5200  1.000     -2.479388     -0.996906     -0.033930
   10   O     10    1.5200  1.000     -1.815509      1.234552     -0.003281
   11   H     11    1.2000  1.000      0.154753      1.808357     -0.032196
   12   H     12    1.2000  1.000      2.696096      1.584412      0.002829
 ------------------------------------------------------------------------------
 ------------------------------------------------------------------------------
 Atomic radii for non-electrostatic terms: SMD-CDS.
 ------------------------------------------------------------------------------
 Nuclear repulsion after PCM non-electrostatic terms =      349.8453287613 Hartrees.
 One-electron integrals computed using PRISM.
 NBasis=   172 RedAO= T EigKep=  5.07D-05  NBF=   172
 NBsUse=   172 1.00D-06 EigRej= -1.00D+00 NBFU=   172
 Initial guess from the checkpoint file:  "/scratch/gongke2021/bizuo/Gau-16314.chk"
 B after Tr=     0.000000   -0.000000    0.000000
         Rot=    0.999998    0.000150    0.000216    0.002032 Ang=   0.23 deg.
 Initial guess <Sx>= 0.0000 <Sy>= 0.0000 <Sz>= 0.5000 <S**2>= 0.7632 S= 0.5066
 ExpMin= 4.38D-02 ExpMax= 5.48D+03 ExpMxC= 8.25D+02 IAcc=2 IRadAn=         4 AccDes= 0.00D+00
 Harris functional with IExCor= 1009 and IRadAn=       4 diagonalized for initial guess.
 HarFok:  IExCor= 1009 AccDes= 0.00D+00 IRadAn=         4 IDoV= 1 UseB2=F ITyADJ=14
 ICtDFT=  3500011 ScaDFX=  1.000000  1.000000  1.000000  1.000000
 FoFCou: FMM=F IPFlag=           0 FMFlag=      100000 FMFlg1=           0
         NFxFlg=           0 DoJE=T BraDBF=F KetDBF=T FulRan=T
         wScrn=  0.000000 ICntrl=       500 IOpCl=  0 I1Cent=   200000004 NGrid=           0
         NMat0=    1 NMatS0=      1 NMatT0=    0 NMatD0=    1 NMtDS0=    0 NMtDT0=    0
 Petite list used in FoFCou.
 Keep R1 and R2 ints in memory in canonical form, NReq=241382590.
 Requested convergence on RMS density matrix=1.00D-08 within 128 cycles.
 Requested convergence on MAX density matrix=1.00D-06.
 Requested convergence on             energy=1.00D-06.
 No special actions if energy rises.
 Inv3:  Mode=1 IEnd=     3288627.
 Iteration    1 A*A^-1 deviation from unit magnitude is 2.89D-15 for    333.
 Iteration    1 A*A^-1 deviation from orthogonality  is 2.18D-15 for   1028    103.
 Iteration    1 A^-1*A deviation from unit magnitude is 3.11D-15 for   1047.
 Iteration    1 A^-1*A deviation from orthogonality  is 1.44D-14 for    687    685.
 Error on total polarization charges =  0.06376
 SCF Done:  E(UM062X) =  -414.676321378     A.U. after   17 cycles
            NFock= 17  Conv=0.55D-08     -V/T= 2.0096
 <Sx>= 0.0000 <Sy>= 0.0000 <Sz>= 0.5000 <S**2>= 0.7629 S= 0.5064
 <L.S>= 0.000000000000E+00
 SMD-CDS (non-electrostatic) energy       (kcal/mol) =       4.18
 (included in total energy above)
 Annihilation of the first spin contaminant:
 S**2 before annihilation     0.7629,   after     0.7501
 D1PCM: PCM CHGder 1st derivatives, ID1Alg=3 FixD1E=F DoIter=F DoCFld=F I1PDM=0.
 Calling FoFJK, ICntrl=      2127 FMM=F ISym2X=0 I1Cent= 0 IOpClX= 1 NMat=1 NMatS=1 NMatT=0.
 ***** Axes restored to original set *****
 -------------------------------------------------------------------
 Center     Atomic                   Forces (Hartrees/Bohr)
 Number     Number              X              Y              Z
 -------------------------------------------------------------------
      1        7          -0.004737398   -0.030379043   -0.002481939
      2        7           0.071395979   -0.018184898    0.005687307
      3        6          -0.021184766    0.041363543    0.000576017
      4        6           0.009528051   -0.006452927    0.000073152
      5        6          -0.015083135    0.007397921    0.001075642
      6        1           0.001122623   -0.001489173    0.000034414
      7        1           0.000508758    0.001289364   -0.000155676
      8        6           0.093660812    0.001931589   -0.026534341
      9        8          -0.096985338   -0.050347256    0.011317453
     10        8          -0.041991344    0.049754358    0.010544169
     11        1           0.003083030    0.004903927   -0.000245789
     12        1           0.000682729    0.000212595    0.000109592
 -------------------------------------------------------------------
 Cartesian Forces:  Max     0.096985338 RMS     0.031147741

 GradGradGradGradGradGradGradGradGradGradGradGradGradGradGradGradGradGrad
 Berny optimization.
 Using GEDIIS/GDIIS optimizer.
 FormGI is forming the generalized inverse of G from B-inverse, IUseBI=4.
 Internal  Forces:  Max     0.103015428 RMS     0.021805382
 Search for a local minimum.
 Step number   2 out of a maximum of   64
 All quantities printed in internal units (Hartrees-Bohrs-Radians)
 Mixed Optimization -- RFO/linear search
 Update second derivatives using D2CorX and points    1    2
 DE= -5.22D-02 DEPred=-4.48D-02 R= 1.17D+00
 TightC=F SS=  1.41D+00  RLast= 3.01D-01 DXNew= 5.0454D-01 9.0251D-01
 Trust test= 1.17D+00 RLast= 3.01D-01 DXMaxT set to 5.05D-01
 ITU=  1  0
 Use linear search instead of GDIIS.
 Linear search step of   0.600 exceeds DXMaxT=   0.505 but not scaled.
 Quartic linear search produced a step of  2.00000.
 Iteration  1 RMS(Cart)=  0.13795487 RMS(Int)=  0.03038904
 Iteration  2 RMS(Cart)=  0.03032166 RMS(Int)=  0.00231058
 Iteration  3 RMS(Cart)=  0.00206566 RMS(Int)=  0.00077428
 Iteration  4 RMS(Cart)=  0.00000540 RMS(Int)=  0.00077427
 Iteration  5 RMS(Cart)=  0.00000001 RMS(Int)=  0.00077427
 Variable       Old X    -DE/DX   Delta X   Delta X   Delta X     New X
                                 (Linear)    (Quad)   (Total)
    R1        2.55653   0.01920   0.04291   0.00000   0.04277   2.59930
    R2        2.55282   0.01272   0.00636   0.00000   0.00646   2.55928
    R3        1.91729  -0.00198   0.00626   0.00000   0.00626   1.92355
    R4        2.54611   0.02931   0.05505   0.00000   0.05486   2.60097
    R5        2.71018  -0.04556  -0.17114   0.00000  -0.17114   2.53904
    R6        2.65308  -0.00272  -0.02164   0.00000  -0.02161   2.63147
    R7        2.04200  -0.00131  -0.00322   0.00000  -0.00322   2.03878
    R8        2.61917   0.00230   0.01366   0.00000   0.01386   2.63303
    R9        2.03865   0.00000  -0.00227   0.00000  -0.00227   2.03638
   R10        2.03970  -0.00055  -0.00251   0.00000  -0.00251   2.03720
   R11        2.71006  -0.10302  -0.32467   0.00000  -0.32467   2.38540
   R12        2.56958  -0.06323  -0.19449   0.00000  -0.19449   2.37508
    A1        1.94043  -0.00897  -0.06201   0.00000  -0.06209   1.87834
    A2        2.08388  -0.00072  -0.00231   0.00000  -0.00229   2.08159
    A3        2.25887   0.00969   0.06430   0.00000   0.06432   2.32319
    A4        1.85586   0.00200   0.05772   0.00000   0.05756   1.91342
    A5        1.95690   0.02872   0.09020   0.00000   0.09059   2.04749
    A6        2.46327  -0.03086  -0.14842   0.00000  -0.14839   2.31488
    A7        1.91643  -0.00775  -0.05845   0.00000  -0.05865   1.85778
    A8        2.10425   0.00251   0.02697   0.00000   0.02707   2.13132
    A9        2.26251   0.00524   0.03148   0.00000   0.03158   2.29409
   A10        1.84039   0.01003   0.03722   0.00000   0.03739   1.87778
   A11        2.22074  -0.00644  -0.03296   0.00000  -0.03305   2.18769
   A12        2.22205  -0.00359  -0.00425   0.00000  -0.00434   2.21771
   A13        1.87167   0.00469   0.02551   0.00000   0.02575   1.89741
   A14        2.10781  -0.00281  -0.02113   0.00000  -0.02125   2.08656
   A15        2.30371  -0.00188  -0.00438   0.00000  -0.00450   2.29921
   A16        2.28118  -0.05320  -0.22912   0.00000  -0.23188   2.04929
   A17        1.99686   0.00453  -0.06239   0.00000  -0.06517   1.93168
   A18        1.96988   0.04862   0.27434   0.00000   0.27133   2.24122
    D1       -0.00324  -0.00008  -0.00604   0.00000  -0.00637  -0.00961
    D2        3.03801  -0.00361  -0.02154   0.00000  -0.01996   3.01805
    D3       -3.13994   0.00066   0.00094   0.00000   0.00005  -3.13989
    D4       -0.09869  -0.00288  -0.01456   0.00000  -0.01354  -0.11223
    D5        0.00218  -0.00002   0.00392   0.00000   0.00409   0.00627
    D6       -3.13949   0.00020   0.00425   0.00000   0.00430  -3.13519
    D7        3.13826  -0.00089  -0.00403   0.00000  -0.00392   3.13434
    D8       -0.00341  -0.00068  -0.00370   0.00000  -0.00370  -0.00711
    D9        0.00301   0.00015   0.00577   0.00000   0.00602   0.00903
   D10       -3.13893   0.00053   0.00491   0.00000   0.00497  -3.13396
   D11       -2.99015  -0.00207  -0.00539   0.00000  -0.00468  -2.99483
   D12        0.15110  -0.00169  -0.00625   0.00000  -0.00573   0.14536
   D13        2.98392   0.00484  -0.01706   0.00000  -0.01609   2.96783
   D14        0.14918  -0.00504   0.01374   0.00000   0.01366   0.16284
   D15       -0.31147   0.00542  -0.00843   0.00000  -0.00835  -0.31982
   D16        3.13697  -0.00446   0.02237   0.00000   0.02140  -3.12481
   D17       -0.00173  -0.00016  -0.00345   0.00000  -0.00332  -0.00505
   D18        3.14058   0.00008  -0.00199   0.00000  -0.00207   3.13851
   D19        3.14025  -0.00058  -0.00249   0.00000  -0.00213   3.13813
   D20       -0.00062  -0.00034  -0.00103   0.00000  -0.00088  -0.00150
   D21       -0.00026   0.00011  -0.00028   0.00000  -0.00048  -0.00074
   D22        3.14142  -0.00014  -0.00066   0.00000  -0.00072   3.14069
   D23        3.14061  -0.00013  -0.00174   0.00000  -0.00177   3.13884
   D24       -0.00089  -0.00038  -0.00212   0.00000  -0.00201  -0.00291
         Item               Value     Threshold  Converged?
 Maximum Force            0.103015     0.000450     NO 
 RMS     Force            0.021805     0.000300     NO 
 Maximum Displacement     0.877782     0.001800     NO 
 RMS     Displacement     0.151864     0.001200     NO 
 Predicted change in Energy=-6.619262D-02
 GradGradGradGradGradGradGradGradGradGradGradGradGradGradGradGradGradGrad

                          Input orientation:                          
 ---------------------------------------------------------------------
 Center     Atomic      Atomic             Coordinates (Angstroms)
 Number     Number       Type             X           Y           Z
 ---------------------------------------------------------------------
      1          7           0       -0.805778   -1.009394   -0.008755
      2          7           0       -0.251344    0.249278    0.009266
      3          6           0       -1.251289    1.195066    0.009327
      4          6           0       -2.455383    0.495632    0.002852
      5          6           0       -2.152296   -0.864304   -0.007695
      6          1           0       -1.040085    2.253050    0.015074
      7          1           0       -3.435945    0.942548    0.003911
      8          6           0        1.081259    0.333863    0.158535
      9          8           0        1.615106    1.464278   -0.016286
     10          8           0        1.610975   -0.802295    0.068019
     11          1           0       -0.193776   -1.822764   -0.009656
     12          1           0       -2.781398   -1.739720   -0.014397
 ---------------------------------------------------------------------
                    Distance matrix (angstroms):
                    1          2          3          4          5
     1  N    0.000000
     2  N    1.375491   0.000000
     3  C    2.249099   1.376373   0.000000
     4  C    2.233032   2.217773   1.392513   0.000000
     5  C    1.354313   2.203173   2.247912   1.393341   0.000000
     6  H    3.270934   2.153427   1.078875   2.256487   3.309899
     7  H    3.275365   3.259192   2.199208   1.077607   2.216439
     8  C    2.322334   1.343602   2.490926   3.543761   3.452408
     9  O    3.461184   2.227221   2.879124   4.184199   4.428961
    10  O    2.426825   2.139507   3.490766   4.268972   3.764543
    11  H    1.017899   2.072928   3.197810   3.238824   2.180470
    12  H    2.106296   3.218361   3.309798   2.259067   1.078038
                    6          7          8          9         10
     6  H    0.000000
     7  H    2.730876   0.000000
     8  C    2.864256   4.560651   0.000000
     9  O    2.770051   5.077965   1.262297   0.000000
    10  O    4.045498   5.340410   1.256840   2.268144   0.000000
    11  H    4.162825   4.261313   2.510985   3.751899   2.074733
    12  H    4.356059   2.761038   4.387456   5.440116   4.492048
                   11         12
    11  H    0.000000
    12  H    2.588958   0.000000
 Stoichiometry    C4H4N2O2(1-,2)
 Framework group  C1[X(C4H4N2O2)]
 Deg. of freedom    30
 Full point group                 C1      NOp   1
 Largest Abelian subgroup         C1      NOp   1
 Largest concise Abelian subgroup C1      NOp   1
                         Standard orientation:                         
 ---------------------------------------------------------------------
 Center     Atomic      Atomic             Coordinates (Angstroms)
 Number     Number       Type             X           Y           Z
 ---------------------------------------------------------------------
      1          7           0        0.654726    1.040276   -0.032601
      2          7           0       -0.072462   -0.127136   -0.014616
      3          6           0        0.783459   -1.204774    0.007732
      4          6           0        2.074385   -0.682716    0.015389
      5          6           0        1.966997    0.706261   -0.009331
      6          1           0        0.424591   -2.222167    0.017465
      7          1           0        2.981707   -1.263765    0.034982
      8          6           0       -1.405661   -0.021083    0.114227
      9          8           0       -2.091502   -1.066192   -0.061163
     10          8           0       -1.767873    1.177694    0.007527
     11          1           0        0.164074    1.931970   -0.048764
     12          1           0        2.713688    1.483829   -0.012174
 ---------------------------------------------------------------------
 Rotational constants (GHZ):           5.1802464           1.8602919           1.3705623
 Standard basis: 6-31+G(d,p) (6D, 7F)
 There are   172 symmetry adapted cartesian basis functions of A   symmetry.
 There are   172 symmetry adapted basis functions of A   symmetry.
   172 basis functions,   284 primitive gaussians,   172 cartesian basis functions
    30 alpha electrons       29 beta electrons
       nuclear repulsion energy       362.8034614696 Hartrees.
 NAtoms=   12 NActive=   12 NUniq=   12 SFac= 1.00D+00 NAtFMM=   60 NAOKFM=F Big=F
 Integral buffers will be    131072 words long.
 Raffenetti 2 integral format.
 Two-electron integral symmetry is turned on.
 ------------------------------------------------------------------------------
 Polarizable Continuum Model (PCM)
 =================================
 Model                : PCM.
 Atomic radii         : SMD-Coulomb.
 Polarization charges : Total charges.
 Charge compensation  : None.
 Solution method      : On-the-fly selection.
 Cavity type          : VdW (van der Waals Surface) (Alpha=1.000).
 Cavity algorithm     : GePol (No added spheres)
                        Default sphere list used, NSphG=   12.
                        Lebedev-Laikov grids with approx.  5.0 points / Ang**2.
                        Smoothing algorithm: York/Karplus (Gamma=1.0000).
                        Polarization charges: spherical gaussians, with
                                              point-specific exponents (IZeta= 3).
                        Self-potential: point-specific (ISelfS= 7).
                        Self-field    : sphere-specific E.n sum rule (ISelfD= 2).
 1st derivatives      : Analytical E(r).r(x)/FMM algorithm (CHGder, D1EAlg=3).
                        Cavity 1st derivative terms included.
 Solvent              : Water, Eps=  78.355300 Eps(inf)=   1.777849
 ------------------------------------------------------------------------------
 Spheres list:
 ISph  on   Nord     Re0    Alpha      Xe            Ye            Ze
    1   N      1    1.8900  1.000      0.654726      1.040276     -0.032601
    2   N      2    1.8900  1.000     -0.072462     -0.127136     -0.014616
    3   C      3    1.8500  1.000      0.783459     -1.204774      0.007732
    4   C      4    1.8500  1.000      2.074385     -0.682716      0.015389
    5   C      5    1.8500  1.000      1.966997      0.706261     -0.009331
    6   H      6    1.2000  1.000      0.424591     -2.222167      0.017465
    7   H      7    1.2000  1.000      2.981707     -1.263765      0.034982
    8   C      8    1.8500  1.000     -1.405661     -0.021083      0.114227
    9   O      9    1.5200  1.000     -2.091502     -1.066192     -0.061163
   10   O     10    1.5200  1.000     -1.767873      1.177694      0.007527
   11   H     11    1.2000  1.000      0.164074      1.931970     -0.048764
   12   H     12    1.2000  1.000      2.713688      1.483829     -0.012174
 ------------------------------------------------------------------------------
 ------------------------------------------------------------------------------
 Atomic radii for non-electrostatic terms: SMD-CDS.
 ------------------------------------------------------------------------------
 Nuclear repulsion after PCM non-electrostatic terms =      362.8121686057 Hartrees.
 One-electron integrals computed using PRISM.
 NBasis=   172 RedAO= T EigKep=  3.96D-05  NBF=   172
 NBsUse=   172 1.00D-06 EigRej= -1.00D+00 NBFU=   172
 Initial guess from the checkpoint file:  "/scratch/gongke2021/bizuo/Gau-16314.chk"
 B after Tr=     0.000000   -0.000000   -0.000000
         Rot=    0.999998    0.000071    0.000989   -0.001583 Ang=   0.21 deg.
 Initial guess <Sx>= 0.0000 <Sy>= 0.0000 <Sz>= 0.5000 <S**2>= 0.7625 S= 0.5062
 ExpMin= 4.38D-02 ExpMax= 5.48D+03 ExpMxC= 8.25D+02 IAcc=2 IRadAn=         4 AccDes= 0.00D+00
 Harris functional with IExCor= 1009 and IRadAn=       4 diagonalized for initial guess.
 HarFok:  IExCor= 1009 AccDes= 0.00D+00 IRadAn=         4 IDoV= 1 UseB2=F ITyADJ=14
 ICtDFT=  3500011 ScaDFX=  1.000000  1.000000  1.000000  1.000000
 FoFCou: FMM=F IPFlag=           0 FMFlag=      100000 FMFlg1=           0
         NFxFlg=           0 DoJE=T BraDBF=F KetDBF=T FulRan=T
         wScrn=  0.000000 ICntrl=       500 IOpCl=  0 I1Cent=   200000004 NGrid=           0
         NMat0=    1 NMatS0=      1 NMatT0=    0 NMatD0=    1 NMtDS0=    0 NMtDT0=    0
 Petite list used in FoFCou.
 Keep R1 and R2 ints in memory in canonical form, NReq=241382590.
 Requested convergence on RMS density matrix=1.00D-08 within 128 cycles.
 Requested convergence on MAX density matrix=1.00D-06.
 Requested convergence on             energy=1.00D-06.
 No special actions if energy rises.
 Inv3:  Mode=1 IEnd=     3213675.
 Iteration    1 A*A^-1 deviation from unit magnitude is 4.00D-15 for   1035.
 Iteration    1 A*A^-1 deviation from orthogonality  is 3.41D-15 for    920    127.
 Iteration    1 A^-1*A deviation from unit magnitude is 4.00D-15 for   1035.
 Iteration    1 A^-1*A deviation from orthogonality  is 5.04D-15 for    749    719.
 Error on total polarization charges =  0.06256
 SCF Done:  E(UM062X) =  -414.716698537     A.U. after   19 cycles
            NFock= 19  Conv=0.26D-08     -V/T= 2.0076
 <Sx>= 0.0000 <Sy>= 0.0000 <Sz>= 0.5000 <S**2>= 0.7621 S= 0.5060
 <L.S>= 0.000000000000E+00
 SMD-CDS (non-electrostatic) energy       (kcal/mol) =       5.46
 (included in total energy above)
 Annihilation of the first spin contaminant:
 S**2 before annihilation     0.7621,   after     0.7501
 D1PCM: PCM CHGder 1st derivatives, ID1Alg=3 FixD1E=F DoIter=F DoCFld=F I1PDM=0.
 Calling FoFJK, ICntrl=      2127 FMM=F ISym2X=0 I1Cent= 0 IOpClX= 1 NMat=1 NMatS=1 NMatT=0.
 ***** Axes restored to original set *****
 -------------------------------------------------------------------
 Center     Atomic                   Forces (Hartrees/Bohr)
 Number     Number              X              Y              Z
 -------------------------------------------------------------------
      1        7           0.001123004   -0.002269348   -0.000481669
      2        7          -0.017945136   -0.003188038    0.011492545
      3        6          -0.013838538    0.008213206   -0.000304890
      4        6          -0.000942593   -0.006927560   -0.000388788
      5        6          -0.026441518    0.001243056    0.000938585
      6        1           0.002008760   -0.002072465    0.000261475
      7        1          -0.002659772   -0.000951106   -0.000353813
      8        6           0.015008846    0.002051124   -0.045733324
      9        8           0.010275617    0.016783987    0.017143696
     10        8           0.039889962   -0.022100719    0.017644939
     11        1          -0.004101327    0.008439945   -0.000039727
     12        1          -0.002377303    0.000777919   -0.000179029
 -------------------------------------------------------------------
 Cartesian Forces:  Max     0.045733324 RMS     0.013929013

 GradGradGradGradGradGradGradGradGradGradGradGradGradGradGradGradGradGrad
 Berny optimization.
 Using GEDIIS/GDIIS optimizer.
 FormGI is forming the generalized inverse of G from B-inverse, IUseBI=4.
 Internal  Forces:  Max     0.063220346 RMS     0.015797346
 Search for a local minimum.
 Step number   3 out of a maximum of   64
 All quantities printed in internal units (Hartrees-Bohrs-Radians)
 Mixed Optimization -- RFO/linear search
 Update second derivatives using D2CorX and points    2    3
 ITU=  0  1  0
 Use linear search instead of GDIIS.
     Eigenvalues ---    0.00641   0.01629   0.01766   0.02115   0.02191
     Eigenvalues ---    0.02222   0.02271   0.02340   0.02367   0.15909
     Eigenvalues ---    0.16000   0.16000   0.16012   0.19927   0.22015
     Eigenvalues ---    0.23333   0.24850   0.26047   0.31115   0.35820
     Eigenvalues ---    0.35991   0.36065   0.40302   0.40985   0.44604
     Eigenvalues ---    0.45439   0.49368   0.52439   0.54796   0.58080
 RFO step:  Lambda=-4.42429525D-02 EMin= 6.40665878D-03
 Quartic linear search produced a step of -0.17375.
 Iteration  1 RMS(Cart)=  0.11371181 RMS(Int)=  0.03731855
 Iteration  2 RMS(Cart)=  0.03713005 RMS(Int)=  0.01684015
 Iteration  3 RMS(Cart)=  0.00355820 RMS(Int)=  0.01641661
 Iteration  4 RMS(Cart)=  0.00021212 RMS(Int)=  0.01641564
 Iteration  5 RMS(Cart)=  0.00001686 RMS(Int)=  0.01641564
 Iteration  6 RMS(Cart)=  0.00000137 RMS(Int)=  0.01641564
 Iteration  7 RMS(Cart)=  0.00000011 RMS(Int)=  0.01641564
 Variable       Old X    -DE/DX   Delta X   Delta X   Delta X     New X
                                 (Linear)    (Quad)   (Total)
    R1        2.59930   0.01038  -0.00743   0.03528   0.02795   2.62725
    R2        2.55928   0.02287  -0.00112   0.03717   0.03601   2.59529
    R3        1.92355  -0.00921  -0.00109  -0.01361  -0.01469   1.90886
    R4        2.60097   0.01917  -0.00953   0.05151   0.04208   2.64305
    R5        2.53904   0.06322   0.02974   0.05100   0.08074   2.61978
    R6        2.63147   0.00763   0.00376   0.00270   0.00641   2.63788
    R7        2.03878  -0.00164   0.00056  -0.00491  -0.00435   2.03443
    R8        2.63303  -0.00877  -0.00241  -0.01060  -0.01313   2.61990
    R9        2.03638   0.00203   0.00039   0.00328   0.00367   2.04005
   R10        2.03720   0.00076   0.00044   0.00043   0.00086   2.03806
   R11        2.38540   0.01700   0.05641  -0.12545  -0.06905   2.31635
   R12        2.37508   0.03553   0.03379  -0.02832   0.00548   2.38056
    A1        1.87834   0.00974   0.01079   0.00663   0.01746   1.89580
    A2        2.08159  -0.00659   0.00040  -0.02665  -0.02628   2.05531
    A3        2.32319  -0.00315  -0.01118   0.01997   0.00877   2.33195
    A4        1.91342  -0.01834  -0.01000  -0.02390  -0.03370   1.87972
    A5        2.04749   0.02862  -0.01574   0.12467   0.10878   2.15627
    A6        2.31488  -0.01033   0.02578  -0.10107  -0.07531   2.23956
    A7        1.85778   0.01025   0.01019   0.00385   0.01409   1.87187
    A8        2.13132  -0.00755  -0.00470  -0.01354  -0.01827   2.11305
    A9        2.29409  -0.00270  -0.00549   0.00969   0.00418   2.29827
   A10        1.87778   0.00228  -0.00650   0.01799   0.01134   1.88911
   A11        2.18769   0.00086   0.00574  -0.00751  -0.00169   2.18600
   A12        2.21771  -0.00314   0.00075  -0.01048  -0.00965   2.20807
   A13        1.89741  -0.00393  -0.00447  -0.00460  -0.00922   1.88819
   A14        2.08656   0.00440   0.00369   0.00847   0.01224   2.09880
   A15        2.29921  -0.00047   0.00078  -0.00388  -0.00302   2.29619
   A16        2.04929  -0.00675   0.04029  -0.07217  -0.09955   1.94975
   A17        1.93168   0.04876   0.01132   0.17301   0.11699   2.04868
   A18        2.24122  -0.02294  -0.04714   0.12305   0.00492   2.24614
    D1       -0.00961   0.00002   0.00111  -0.00408  -0.00299  -0.01260
    D2        3.01805  -0.00133   0.00347  -0.01494  -0.01179   3.00626
    D3       -3.13989   0.00027  -0.00001   0.00013   0.00018  -3.13971
    D4       -0.11223  -0.00108   0.00235  -0.01073  -0.00861  -0.12084
    D5        0.00627   0.00013  -0.00071   0.00520   0.00451   0.01078
    D6       -3.13519  -0.00003  -0.00075   0.00155   0.00083  -3.13435
    D7        3.13434  -0.00018   0.00068  -0.00028   0.00032   3.13467
    D8       -0.00711  -0.00034   0.00064  -0.00393  -0.00335  -0.01046
    D9        0.00903  -0.00006  -0.00105   0.00146   0.00048   0.00951
   D10       -3.13396   0.00032  -0.00086   0.00255   0.00180  -3.13216
   D11       -2.99483  -0.00180   0.00081  -0.00721  -0.00684  -3.00167
   D12        0.14536  -0.00142   0.00100  -0.00612  -0.00552   0.13985
   D13        2.96783   0.02465   0.00280   0.32953   0.32249  -2.99286
[...]
   D18        3.12919   0.00000   0.00000   0.00000   0.00000   3.12920
   D19       -3.13345  -0.00000   0.00000  -0.00027  -0.00027  -3.13372
   D20        0.01521  -0.00000   0.00000  -0.00012  -0.00012   0.01509
   D21       -0.07840   0.00000   0.00000   0.00024   0.00024  -0.07817
   D22       -3.12344  -0.00001   0.00000  -0.00097  -0.00097  -3.12441
   D23        3.05609   0.00000   0.00000   0.00008   0.00008   3.05617
   D24        0.01106  -0.00001   0.00000  -0.00113  -0.00113   0.00993
         Item               Value     Threshold  Converged?
 Maximum Force            0.000051     0.000450     YES
 RMS     Force            0.000013     0.000300     YES
 Maximum Displacement     0.001845     0.001800     NO 
 RMS     Displacement     0.000575     0.001200     YES
 Predicted change in Energy=-4.144970D-08
                           ----------------------------
                           ! Non-Optimized Parameters !
                           ! (Angstroms and Degrees)  !
 --------------------------                            --------------------------
 ! Name  Definition              Value          Derivative Info.                !
 --------------------------------------------------------------------------------
 ! R1    R(1,2)                  1.407          -DE/DX =    0.0                 !
 ! R2    R(1,5)                  1.4094         -DE/DX =    0.0                 !
 ! R3    R(1,11)                 1.0195         -DE/DX =    0.0                 !
 ! R4    R(2,3)                  1.3946         -DE/DX =    0.0                 !
 ! R5    R(2,8)                  1.3977         -DE/DX =    0.0                 !
 ! R6    R(3,4)                  1.3912         -DE/DX =    0.0                 !
 ! R7    R(3,6)                  1.0772         -DE/DX =    0.0                 !
 ! R8    R(4,5)                  1.3824         -DE/DX =   -0.0001              !
 ! R9    R(4,7)                  1.0811         -DE/DX =    0.0                 !
 ! R10   R(5,12)                 1.0789         -DE/DX =    0.0                 !
 ! R11   R(8,9)                  1.2645         -DE/DX =    0.0                 !
 ! R12   R(8,10)                 1.2643         -DE/DX =    0.0                 !
 ! A1    A(2,1,5)              105.5272         -DE/DX =    0.0                 !
 ! A2    A(2,1,11)             111.5686         -DE/DX =    0.0                 !
 ! A3    A(5,1,11)             118.143          -DE/DX =    0.0                 !
 ! A4    A(1,2,3)              108.976          -DE/DX =    0.0                 !
 ! A5    A(1,2,8)              121.2072         -DE/DX =    0.0                 !
 ! A6    A(3,2,8)              129.3058         -DE/DX =    0.0                 !
 ! A7    A(2,3,4)              107.4196         -DE/DX =    0.0                 !
 ! A8    A(2,3,6)              120.5347         -DE/DX =    0.0                 !
 ! A9    A(4,3,6)              132.0279         -DE/DX =    0.0                 !
 ! A10   A(3,4,5)              108.2691         -DE/DX =    0.0                 !
 ! A11   A(3,4,7)              125.6586         -DE/DX =    0.0                 !
 ! A12   A(5,4,7)              126.0709         -DE/DX =    0.0                 !
 ! A13   A(1,5,4)              109.0354         -DE/DX =    0.0                 !
 ! A14   A(1,5,12)             119.5309         -DE/DX =    0.0                 !
 ! A15   A(4,5,12)             131.2208         -DE/DX =    0.0                 !
 ! A16   A(2,8,9)              115.8844         -DE/DX =    0.0                 !
 ! A17   A(2,8,10)             116.352          -DE/DX =    0.0                 !
 ! A18   A(9,8,10)             127.751          -DE/DX =    0.0                 !
 ! D1    D(5,1,2,3)             -8.8673         -DE/DX =    0.0                 !
 ! D2    D(5,1,2,8)            178.609          -DE/DX =    0.0                 !
 ! D3    D(11,1,2,3)          -138.3783         -DE/DX =    0.0                 !
 ! D4    D(11,1,2,8)            49.098          -DE/DX =    0.0                 !
 ! D5    D(2,1,5,4)              8.1718         -DE/DX =    0.0                 !
 ! D6    D(2,1,5,12)          -176.5491         -DE/DX =    0.0                 !
 ! D7    D(11,1,5,4)           133.7148         -DE/DX =    0.0                 !
 ! D8    D(11,1,5,12)          -51.0061         -DE/DX =    0.0                 !
 ! D9    D(1,2,3,4)              6.3205         -DE/DX =    0.0                 !
 ! D10   D(1,2,3,6)           -175.0377         -DE/DX =    0.0                 !
 ! D11   D(8,2,3,4)            178.0513         -DE/DX =    0.0                 !
 ! D12   D(8,2,3,6)             -3.3069         -DE/DX =    0.0                 !
 ! D13   D(1,2,8,9)            174.5748         -DE/DX =    0.0                 !
 ! D14   D(1,2,8,10)            -6.6138         -DE/DX =    0.0                 !
 ! D15   D(3,2,8,9)              3.7246         -DE/DX =    0.0                 !
 ! D16   D(3,2,8,10)          -177.4639         -DE/DX =    0.0                 !
 ! D17   D(2,3,4,5)             -1.1236         -DE/DX =    0.0                 !
 ! D18   D(2,3,4,7)            179.2897         -DE/DX =    0.0                 !
 ! D19   D(6,3,4,5)           -179.5487         -DE/DX =    0.0                 !
 ! D20   D(6,3,4,7)              0.8647         -DE/DX =    0.0                 !
 ! D21   D(3,4,5,1)             -4.4786         -DE/DX =    0.0                 !
 ! D22   D(3,4,5,12)          -179.0156         -DE/DX =    0.0                 !
 ! D23   D(7,4,5,1)            175.1059         -DE/DX =    0.0                 !
 ! D24   D(7,4,5,12)             0.5689         -DE/DX =    0.0                 !
 --------------------------------------------------------------------------------
 GradGradGradGradGradGradGradGradGradGradGradGradGradGradGradGradGradGrad


 ----------------------------------------------------------------------

 Electric dipole moment (input orientation):
 (Debye = 10**-18 statcoulomb cm , SI units = C m)
                  (au)            (Debye)         (10**-30 SI)
   Tot        0.455973D+01      0.115897D+02      0.386590D+02
   x         -0.442462D+01     -0.112463D+02     -0.375135D+02
   y         -0.101431D+01     -0.257811D+01     -0.859965D+01
   z          0.430226D+00      0.109353D+01      0.364761D+01

 Dipole polarizability, Alpha (input orientation).
 (esu units = cm**3 , SI units = C**2 m**2 J**-1)
 Alpha(0;0):
               (au)            (10**-24 esu)      (10**-40 SI)
   iso        0.111181D+03      0.164753D+02      0.183312D+02
   aniso      0.712339D+02      0.105558D+02      0.117449D+02
   xx         0.140487D+03      0.208180D+02      0.231631D+02
   yx         0.109262D+02      0.161909D+01      0.180148D+01
   yy         0.126857D+03      0.187983D+02      0.209159D+02
   zx        -0.381862D+00     -0.565861D-01     -0.629606D-01
   zy         0.281071D+01      0.416504D+00      0.463423D+00
   zz         0.661985D+02      0.980960D+01      0.109147D+02

 ----------------------------------------------------------------------

 Dipole orientation:
     7         -0.14957116         -1.72075715          1.91601952
     7         -0.10428512          0.42740185          0.35004069
     6         -0.68539821          2.55363643          1.79470046
     6         -0.82477301          1.78532452          4.30502795
     6         -0.38334511         -0.78784067          4.39971313
     1         -0.89662672          4.37657487          0.91374550
     1         -1.22379206          2.99677862          5.90085385
     6          0.17292740          0.20743961         -2.26726631
     8         -0.01115821          2.23982292         -3.51034950
     8          0.62005211         -1.98457892         -3.10563608
     1          1.31367245         -2.91201859          1.52678566
     1         -0.35471784         -2.08925978          5.96882904

 Electric dipole moment (dipole orientation):
 (Debye = 10**-18 statcoulomb cm , SI units = C m)
                  (au)            (Debye)         (10**-30 SI)
   Tot        0.455973D+01      0.115897D+02      0.386590D+02
   x          0.000000D+00      0.000000D+00      0.000000D+00
   y          0.000000D+00      0.000000D+00      0.000000D+00
   z          0.455973D+01      0.115897D+02      0.386590D+02

 Dipole polarizability, Alpha (dipole orientation).
 (esu units = cm**3 , SI units = C**2 m**2 J**-1)
 Alpha(0;0):
               (au)            (10**-24 esu)      (10**-40 SI)
   iso        0.111181D+03      0.164753D+02      0.183312D+02
   aniso      0.712339D+02      0.105558D+02      0.117449D+02
   xx         0.682246D+02      0.101098D+02      0.112487D+02
   yx        -0.904573D+01     -0.134044D+01     -0.149144D+01
   yy         0.121498D+03      0.180041D+02      0.200323D+02
   zx        -0.595207D+01     -0.882006D+00     -0.981364D+00
   zy        -0.810442D+01     -0.120095D+01     -0.133624D+01
   zz         0.143820D+03      0.213119D+02      0.237127D+02

 ----------------------------------------------------------------------
 1\1\GINC-NODE3\Freq\UM062X\6-31+G(d,p)\C4H4N2O2(1-,2)\GONGKE2021\05-No
 v-2023\0\\#N Geom=AllCheck Guess=TCheck SCRF=Check GenChk UM062X/6-31+
 G(d,p) Freq\\Title Card Required\\-1,2\N,-0.8153069911,-1.0793433084,-
 0.1836965785\N,-0.2320583816,0.1856246645,0.0142388604\C,-1.2387383722
 ,1.1505011632,0.0382598104\C,-2.4578819347,0.4813571416,0.0015894822\C
 ,-2.2053173689,-0.8759543006,-0.0699106874\H,-0.9922467995,2.197288752
 8,0.1003956472\H,-3.4332530851,0.947240228,0.0189796232\C,1.1553534135
 ,0.3536495835,0.0000124909\O,1.5679398404,1.5460537725,0.082659923\O,1
 .8476758983,-0.7018480268,-0.0702829224\H,-0.3830235125,-1.78813958,0.
 408010718\H,-2.8730989866,-1.7211916702,-0.1300614769\\Version=ES64L-G
 16RevA.03\State=2-A\HF=-414.7366546\S2=0.764043\S2-1=0.\S2A=0.750066\R
 MSD=1.185e-09\RMSF=2.616e-05\ZeroPoint=0.0826686\Thermal=0.0894624\Dip
 ole=-4.424619,-1.0143064,0.4302263\DipoleDeriv=-0.3290469,0.7666255,0.
 1630412,0.1597331,-0.792969,-0.1504839,0.1152065,-0.513677,-0.2640416,
 -2.5080638,-0.3479322,-0.0147189,0.1073189,-0.0452451,0.0932056,-0.004
 9423,0.0442048,-0.0664241,0.172383,-0.4743798,0.0505183,-0.3945346,-0.
 5087704,-0.0283414,-0.0206014,0.0551669,-0.376602,0.1769513,0.3768352,
 -0.0122794,0.5561812,0.7152224,-0.029065,0.0117368,0.0308224,-0.214799
 9,0.0883264,-0.5437743,-0.1270135,-0.6612464,-0.3715106,0.1065311,0.07
 0652,0.284168,-0.3118117,0.1031266,-0.0224492,-0.0048918,0.0090452,0.0
 920446,-0.0121097,-0.0032999,-0.0227803,0.3242988,0.0167007,0.069818,0
 .0024782,0.0783986,0.1541619,-0.0052847,-0.0076396,-0.0052742,0.229738
 7,4.3999922,0.2369892,-0.0226692,0.1594745,3.3441158,0.1717495,-0.0269
 202,0.1575333,0.555645,-1.5378768,-0.4997986,-0.0314531,-1.0487658,-2.
 3046048,-0.0968133,-0.0813747,-0.1068962,-0.7629652,-1.9610378,0.53162
 29,0.0432179,1.1268172,-1.7985211,-0.0636537,0.0752869,-0.0480933,-0.7
 431342,0.3033922,-0.067116,-0.0505495,-0.0630842,0.446161,0.0325365,-0
 .0863721,0.2172016,0.3329635,0.075153,-0.0264407,0.0043199,-0.0293376,
 0.0699154,-0.0182708,-0.041732,-0.0923761,0.2971326\Polar=140.4865544,
 10.9261658,126.8572851,-0.3818622,2.8107098,66.1984545\Quadrupole=-9.1
 343728,4.178637,4.9557358,-1.7355246,-0.0922091,-2.058405\PG=C01 [X(C4
 H4N2O2)]\NImag=0\\0.59731357,-0.09724033,0.62830029,0.12539994,-0.1603
 2296,0.22030448,-0.12486956,-0.02921448,-0.02544167,0.79366201,-0.0612
 7957,-0.22961984,-0.00161456,-0.01743436,0.63792238,-0.03386342,-0.031
 73155,-0.03330800,0.01739397,0.03986442,0.05606645,-0.00329052,0.00798
 519,0.00722448,-0.20349280,0.10496417,-0.00023634,0.59797705,0.0231739
 1,-0.05910962,-0.00597727,0.07604679,-0.20183679,-0.00732070,0.0957551
 1,0.79926469,-0.00061016,-0.00492984,-0.00612208,-0.00332293,-0.006463
 13,-0.02122597,0.01305672,0.04021902,0.06612254,-0.03872263,0.02983175
 ,-0.00172834,-0.06558955,0.01903369,0.00168361,-0.29487269,-0.09539920
 ,-0.00791313,0.81176040,0.03053201,-0.02124583,-0.00147908,0.01392025,
 0.00499943,-0.00014878,-0.06219941,-0.12358816,-0.00725246,-0.14443371
 ,0.59794852,0.00574920,-0.00461226,0.00882191,-0.00113098,0.00033370,0
 .00959870,-0.00724804,-0.00576952,-0.04979026,-0.00249409,0.03130927,0
 .11261010,-0.27356694,0.00783755,-0.00429824,-0.06741958,-0.01984065,0
 .00378783,0.01518062,-0.04116228,0.00130010,-0.11249306,0.06241266,0.0
 0246623,0.61723745,0.05173134,-0.10717110,0.01171599,-0.04130646,-0.01
 301146,0.00087967,-0.08764957,-0.08447713,-0.00315913,0.08825188,-0.32
 375320,-0.01646511,0.10993988,0.78390570,0.03049548,0.00813653,-0.0358
 4458,-0.00295538,-0.00711616,-0.00697949,-0.00462901,0.00122333,0.0236
 4895,0.00312902,-0.01952503,-0.05073258,0.00029903,0.04047828,0.079658
 34,-0.00359181,0.00293760,-0.00106319,0.00898558,0.02392827,0.00219943
 ,-0.07355362,-0.07876577,-0.00537977,0.00520531,-0.02140153,-0.0011666
 7,-0.00538727,-0.00137607,-0.00028000,0.06666408,0.00104057,-0.0001271
 3,0.00133697,-0.00563232,-0.01324460,-0.00122754,-0.06794793,-0.357163
 67,-0.01996287,0.00076250,-0.00175466,-0.00013952,0.00101184,0.0015310
 5,-0.00044702,0.07429579,0.37155090,0.00140209,-0.00083049,0.00209844,
 0.00079545,-0.00024081,-0.00384482,-0.00544914,-0.02099155,-0.01071800
 ,0.00049769,0.00018217,0.00003883,-0.00140697,-0.00018522,0.00285558,0
 .00499292,0.02090830,0.01110145,0.00064803,-0.00103872,-0.00025713,-0.
 00372036,-0.00245337,0.00001889,-0.01012900,0.01402247,0.00044714,-0.3
 0911101,0.11886281,0.00458943,0.00299116,-0.00132847,-0.00022924,0.000
 54857,-0.00027666,0.00000983,0.31849283,0.00071646,-0.00544149,0.00074
 803,-0.00427606,-0.00290542,-0.00027205,-0.01226029,0.01359206,0.00039
 056,0.11895955,-0.11584710,-0.00359432,0.02530197,0.00014482,-0.000579
 65,0.00099067,-0.00021703,0.00017809,-0.12914734,0.10869110,-0.0018150
 1,-0.00156376,0.00720162,0.00019034,0.00063751,0.00565426,0.00017097,0
 .00068250,-0.00001203,0.00385676,-0.00372616,-0.03278960,0.00147958,-0
 .00047547,-0.00009162,0.00006800,0.00016830,-0.00268032,-0.00472263,0.
 00366513,0.02476406,-0.01815611,-0.00466318,0.00712602,-0.20982217,-0.
 02917895,-0.00852498,-0.02581551,0.01620368,0.00446289,0.00361265,-0.0
 0812188,-0.00000144,0.01265519,0.01190418,-0.00382706,0.00134368,-0.00
 198629,-0.00060474,0.00167258,-0.00008073,-0.00011437,0.56090850,-0.03
 248632,-0.00347951,0.00193621,0.00100210,-0.10874978,-0.00770023,0.015
 07459,0.01591370,0.00076216,0.00435727,-0.00755908,-0.00025142,0.00121
 650,-0.00517190,-0.00150795,-0.00023909,-0.00214667,-0.00007171,0.0010
 2134,0.00088869,-0.00006511,-0.03527360,0.84009250,-0.00590310,0.00112
 046,-0.00570398,0.00214814,-0.00932712,-0.04758471,-0.00154341,0.00159
 168,-0.00588785,0.00031992,0.00052297,0.00069485,0.00113402,-0.0006547
 0,-0.00235418,-0.00001837,-0.00001830,-0.00034340,-0.00002828,0.000020
 09,0.00156394,0.00019832,0.04684867,0.21393639,-0.00757364,0.00143743,
 -0.00018354,-0.04915754,-0.06052767,-0.00345198,0.00355653,-0.00179827
 ,-0.00077139,-0.00081692,-0.00080610,-0.00003076,-0.00218630,-0.004958
 03,0.00038410,-0.00126052,-0.00160671,-0.00004405,-0.00041449,0.000065
 11,-0.00003057,-0.12971337,-0.10693900,-0.00718128,0.16046067,-0.00259
 794,-0.00380118,-0.00468862,-0.05392874,-0.03175140,0.00163821,0.00278
 840,-0.00031562,-0.00114229,-0.00006034,0.00433704,0.00024379,-0.00383
 405,-0.00447317,0.00169819,-0.00040415,0.00187156,0.00024930,-0.000421
 37,0.00018362,0.00003198,-0.10715129,-0.39636844,-0.02463891,0.1528883
 7,0.53854026,0.00090053,-0.00176993,0.00462204,-0.00221313,-0.00037048
 ,0.01643197,0.00065957,-0.00020754,-0.00166789,0.00000603,0.00026118,-
 0.00005356,-0.00074166,-0.00048113,0.00108741,-0.00005213,0.00011121,0
 .00020853,-0.00002647,-0.00000320,-0.00012953,-0.00799618,-0.02301735,
 -0.07772641,0.00986380,0.03490538,0.03348419,0.00127461,0.00348915,-0.
 00158085,-0.08261463,0.05703874,0.00607244,-0.00287944,-0.01081169,-0.
 00090357,-0.00329020,0.00737920,0.00024513,-0.00268949,-0.00261607,0.0
 0161609,-0.00037988,0.00058080,0.00014250,-0.00098001,-0.00027295,-0.0
 0004249,-0.20143885,0.15624426,0.01062503,0.02923369,0.01412021,0.0004
 5925,0.26375666,-0.01113793,0.00715121,0.00643807,0.04386679,-0.012247
 40,-0.00712400,0.00526847,0.00205601,0.00081452,-0.00195424,-0.0058877
 4,-0.00032776,0.00563197,0.00478566,-0.00176976,0.00031523,0.00019621,
 -0.00007758,0.00038571,0.00011781,-0.00002197,0.15924400,-0.33139474,-
 0.01610069,0.02193261,-0.11010306,-0.00899500,-0.22646408,0.44485196,-
 0.00097913,0.00086277,-0.00108708,0.00496558,-0.00265898,0.01732517,0.
 00035559,0.00018439,0.00472795,-0.00017133,-0.00045701,0.00033826,0.00
 064585,0.00022575,0.00100713,0.00002259,-0.00000197,-0.00021127,0.0000
 4376,0.00003407,-0.00069102,0.01012940,-0.01909411,-0.07897938,0.00145
 528,-0.00851055,0.02419573,-0.01602006,0.02964733,0.03482085,-0.116509
 11,0.10346913,-0.10333644,0.00934873,-0.01641516,0.01430106,-0.0018459
 1,-0.00127373,-0.00054637,-0.00652497,-0.00199487,-0.00118970,-0.01052
 866,0.02499641,-0.01628137,0.00057926,-0.00021922,-0.00039562,0.000202
 80,0.00091864,0.00104166,0.00294267,-0.00286067,0.00058318,-0.00106726
 ,-0.00062033,-0.00087399,0.00037111,0.00279326,-0.00044653,0.12277441,
 0.09106522,-0.21545914,0.15139951,0.01295936,-0.02957221,0.01347565,-0
 .00451661,-0.00085592,0.00124311,-0.00117732,0.00083231,0.00037323,0.0
 0769498,0.00181435,-0.00377906,0.00083731,-0.00054350,0.00085191,0.000
 01692,0.00015360,0.00036813,-0.00031347,-0.00262779,0.00062230,0.00004
 499,0.00144543,-0.00045209,0.00125409,0.00063817,-0.00022604,-0.108109
 84,0.24454288,-0.12380986,0.19316466,-0.15737775,0.01161116,-0.0127377
 3,0.00589762,-0.00244450,-0.00148128,-0.00228906,0.00260266,-0.0010629
 7,0.00048810,0.00770593,-0.01190719,0.00157516,0.00071772,-0.00074394,
 0.00014749,0.00011530,-0.00085036,0.00026404,-0.00234686,0.00177238,0.
 00201598,0.00014702,0.00073993,-0.00051747,-0.00014186,-0.00303616,-0.
 00147191,0.10621348,-0.16413723,0.15152090,-0.01295589,-0.02483108,-0.
 00186103,-0.00531013,0.00216486,0.00061950,-0.00083472,0.00400898,0.00
 018047,0.01084267,0.00585058,0.00021169,-0.17379312,-0.14758901,-0.007
 72167,0.00084662,-0.00002237,0.00006004,-0.00020109,-0.00091504,-0.000
 08225,0.00181073,-0.00111738,-0.00033417,-0.00106087,-0.00077877,0.000
 01439,-0.00036359,0.00011822,-0.00000100,0.00025693,0.00024438,-0.0003
 7020,0.18076245,0.00648258,0.01000333,0.00050772,0.00399713,0.00001709
 ,-0.00033308,0.00273791,-0.00347956,-0.00051966,-0.01817183,-0.0084815
 4,-0.00110006,-0.15621038,-0.25412362,-0.01681169,-0.00111826,0.000047
 55,0.00002758,0.00035670,0.00063933,0.00029892,-0.00058247,0.00060302,
 0.00001355,0.00026727,0.00043496,0.00001895,0.00005833,-0.00016410,-0.
 00000565,-0.00068361,-0.00036818,0.00027989,0.16286663,0.25487170,0.00
 303345,0.00247639,-0.00360502,-0.00204055,-0.00030665,0.00196883,0.000
 08310,-0.00215305,0.00321369,0.00021118,0.00137591,0.00077525,-0.01237
 170,-0.01997173,-0.01383013,-0.00004051,0.00001638,0.00134749,0.000039
 41,0.00026362,-0.00305382,0.00149901,0.00038845,0.00036874,-0.00015663
 ,-0.00052641,0.00006498,-0.00047161,0.00055300,0.00002555,0.00093063,0
 .00026058,-0.00025311,0.00928424,0.01762353,0.01297757\\0.00001780,0.0
 0007090,-0.00002226,-0.00002403,-0.00005778,-0.00001579,0.00000278,-0.
 00000159,0.00000184,0.00001605,0.00006643,0.00000060,-0.00000541,-0.00
 006811,0.00004581,0.00000024,0.00000827,0.00000670,0.00000601,0.000005
 35,0.00002546,0.00000462,-0.00001739,-0.00001534,0.00001373,0.00000506
 ,-0.00001021,-0.00002520,0.00000395,-0.00001721,-0.00000443,-0.0000210
 9,0.00000399,-0.00000215,0.00000599,-0.00000361\\\@


 Children are likely to live up to what you believe of them.
 -- Lady Bird Johnson
 Job cpu time:       0 days  0 hours 42 minutes 56.0 seconds.
 Elapsed time:       0 days  0 hours  2 minutes  9.9 seconds.
 File lengths (MBytes):  RWF=    103 Int=      0 D2E=      0 Chk=      7 Scr=      1
 Normal termination of Gaussian 16 at Sun Nov  5 02:39:22 2023.
