 Entering Gaussian System, Link 0=/opt/soft/g16b/g16/g16
 Initial command:
 /opt/soft/g16b/g16/l1.exe "/scratch/gongke2021/bizuo-PC/Gau-22727.inp" -scrdir="/scratch/gongke2021/bizuo-PC/"
 Entering Link 1 = /opt/soft/g16b/g16/l1.exe PID=     22728.
  
 Copyright (c) 1988,1990,1992,1993,1995,1998,2003,2009,2016,
            Gaussian, Inc.  All Rights Reserved.
  
 This is part of the Gaussian(R) 16 program.  It is based on
 the Gaussian(R) 09 system (copyright 2009, Gaussian, Inc.),
 the Gaussian(R) 03 system (copyright 2003, Gaussian, Inc.),
 the Gaussian(R) 98 system (copyright 1998, Gaussian, Inc.),
 the Gaussian(R) 94 system (copyright 1995, Gaussian, Inc.),
 the Gaussian 92(TM) system (copyright 1992, Gaussian, Inc.),
 the Gaussian 90(TM) system (copyright 1990, Gaussian, Inc.),
 the Gaussian 88(TM) system (copyright 1988, Gaussian, Inc.),
 the Gaussian 86(TM) system (copyright 1986, Carnegie Mellon
 University), and the Gaussian 82(TM) system (copyright 1983,
 Carnegie Mellon University). Gaussian is a federally registered
 trademark of Gaussian, Inc.
  
 This software contains proprietary and confidential information,
 including trade secrets, belonging to Gaussian, Inc.
  
 This software is provided under written license and may be
 used, copied, transmitted, or stored only in accord with that
 written license.
  
 The following legend is applicable only to US Government
 contracts under FAR:
  
                    RESTRICTED RIGHTS LEGEND
  
 Use, reproduction and disclosure by the US Government is
 subject to restrictions as set forth in subparagraphs (a)
 and (c) of the Commercial Computer Software - Restricted
 Rights clause in FAR 52.227-19.
  
 Gaussian, Inc.
 340 Quinnipiac St., Bldg. 40, Wallingford CT 06492
  
  
 ---------------------------------------------------------------
 Warning -- This program may not be used in any manner that
 competes with the business of Gaussian, Inc. or will provide
 assistance to any competitor of Gaussian, Inc.  The licensee
 of this program is prohibited from giving any competitor of
 Gaussian, Inc. access to this program.  By using this program,
 the user acknowledges that Gaussian, Inc. is engaged in the
 business of creating and licensing software in the field of
 computational chemistry and represents and warrants to the
 licensee that it is not a competitor of Gaussian, Inc. and that
 it will not use this program in any manner prohibited above.
 ---------------------------------------------------------------
  

 Cite this work as:
 Gaussian 16, Revision A.03,
 M. J. Frisch, G. W. Trucks, H. B. Schlegel, G. E. Scuseria, 
 M. A. Robb, J. R. Cheeseman, G. Scalmani, V. Barone, 
 G. A. Petersson, H. Nakatsuji, X. Li, M. Caricato, A. V. Marenich, 
 J. Bloino, B. G. Janesko, R. Gomperts, B. Mennucci, H. P. Hratchian, 
 J. V. Ortiz, A. F. Izmaylov, J. L. Sonnenberg, D. Williams-Young, 
 F. Ding, F. Lipparini, F. Egidi, J. Goings, B. Peng, A. Petrone, 
 T. Henderson, D. Ranasinghe, V. G. Zakrzewski, J. Gao, N. Rega, 
 G. Zheng, W. Liang, M. Hada, M. Ehara, K. Toyota, R. Fukuda, 
 J. Hasegawa, M. Ishida, T. Nakajima, Y. Honda, O. Kitao, H. Nakai, 
 T. Vreven, K. Throssell, J. A. Montgomery, Jr., J. E. Peralta, 
 F. Ogliaro, M. J. Bearpark, J. J. Heyd, E. N. Brothers, K. N. Kudin, 
 V. N. Staroverov, T. A. Keith, R. Kobayashi, J. Normand, 
 K. Raghavachari, A. P. Rendell, J. C. Burant, S. S. Iyengar, 
 J. Tomasi, M. Cossi, J. M. Millam, M. Klene, C. Adamo, R. Cammi, 
 J. W. Ochterski, R. L. Martin, K. Morokuma, O. Farkas, 
 J. B. Foresman, and D. J. Fox, Gaussian, Inc., Wallingford CT, 2016.
 
 ******************************************
 Gaussian 16:  ES64L-G16RevA.03 25-Dec-2016
                 5-Nov-2023 
 ******************************************
 %mem=10GB
 %nprocshared=20
 Will use up to   20 processors via shared memory.
 -----------------------------------------------------
 # opt freq 6-31+g(d,p) scrf=(smd,solvent=water) m062x
 -----------------------------------------------------
 1/18=20,19=15,26=3,38=1/1,3;
 2/9=110,12=2,17=6,18=5,40=1/2;
 3/5=1,6=6,7=111,11=2,25=1,30=1,70=32201,71=1,72=1,74=-55/1,2,3;
 4//1;
 5/5=2,38=5,53=1/2;
 6/7=2,8=2,9=2,10=2,28=1/1;
 7//1,2,3,16;
 1/18=20,19=15,26=3/3(2);
 2/9=110/2;
 99//99;
 2/9=110/2;
 3/5=1,6=6,7=111,11=2,25=1,30=1,70=32205,71=1,72=1,74=-55/1,2,3;
 4/5=5,16=3,69=1/1;
 5/5=2,38=5,53=1/2;
 7//1,2,3,16;
 1/18=20,19=15,26=3/3(-5);
 2/9=110/2;
 6/7=2,8=2,9=2,10=2,19=2,28=1/1;
 99/9=1/99;
 -------------------
 Title Card Required
 -------------------
 Symbolic Z-matrix:
 Charge =  0 Multiplicity = 1
 N                     0.39897   0.98954  -0.01079 
 N                     0.34857  -0.36247   0.00201 
 C                     1.60172  -0.88506   0.01036 
 C                     2.48948   0.16626   0.00413 
 C                     1.68184   1.32002  -0.00886 
 H                     1.75131  -1.95378   0.01865 
 H                     3.56716   0.11455   0.00728 
 C                    -0.89492  -1.13552  -0.00155 
 O                    -0.74061  -2.35705   0.01976 
 O                    -1.9703   -0.48042  -0.02717 
 H                    -0.99835   1.72171  -0.07121 
 H                     1.97018   2.36204  -0.0168 
 O                    -1.87499   1.98051  -0.07529 
 H                    -1.83904   0.41021   0.08972 
 H                    -2.1693    2.43229   0.73282 
 
 Add virtual bond connecting atoms N1         and H11        Dist= 2.98D+00.
 Add virtual bond connecting atoms H14        and H11        Dist= 2.96D+00.
 Add virtual bond connecting atoms H14        and O13        Dist= 2.98D+00.

 GradGradGradGradGradGradGradGradGradGradGradGradGradGradGradGradGradGrad
 Berny optimization.
 Initialization pass.
                           ----------------------------
                           !    Initial Parameters    !
                           ! (Angstroms and Degrees)  !
 --------------------------                            --------------------------
 ! Name  Definition              Value          Derivative Info.                !
 --------------------------------------------------------------------------------
 ! R1    R(1,2)                  1.353          estimate D2E/DX2                !
 ! R2    R(1,5)                  1.3247         estimate D2E/DX2                !
 ! R3    R(1,11)                 1.5787         estimate D2E/DX2                !
 ! R4    R(2,3)                  1.3578         estimate D2E/DX2                !
 ! R5    R(2,8)                  1.4642         estimate D2E/DX2                !
 ! R6    R(3,4)                  1.376          estimate D2E/DX2                !
 ! R7    R(3,6)                  1.0792         estimate D2E/DX2                !
 ! R8    R(4,5)                  1.4084         estimate D2E/DX2                !
 ! R9    R(4,7)                  1.0789         estimate D2E/DX2                !
 ! R10   R(5,12)                 1.0812         estimate D2E/DX2                !
 ! R11   R(8,9)                  1.2314         estimate D2E/DX2                !
 ! R12   R(8,10)                 1.2595         estimate D2E/DX2                !
 ! R13   R(10,14)                0.9078         estimate D2E/DX2                !
 ! R14   R(11,13)                0.914          estimate D2E/DX2                !
 ! R15   R(11,14)                1.5661         estimate D2E/DX2                !
 ! R16   R(13,14)                1.5794         estimate D2E/DX2                !
 ! R17   R(13,15)                0.9715         estimate D2E/DX2                !
 ! A1    A(2,1,5)              106.5797         estimate D2E/DX2                !
 ! A2    A(2,1,11)             115.5205         estimate D2E/DX2                !
 ! A3    A(5,1,11)             137.8582         estimate D2E/DX2                !
 ! A4    A(1,2,3)              110.5042         estimate D2E/DX2                !
 ! A5    A(1,2,8)              123.9998         estimate D2E/DX2                !
 ! A6    A(3,2,8)              125.4949         estimate D2E/DX2                !
 ! A7    A(2,3,4)              107.5394         estimate D2E/DX2                !
 ! A8    A(2,3,6)              120.6067         estimate D2E/DX2                !
 ! A9    A(4,3,6)              131.8538         estimate D2E/DX2                !
 ! A10   A(3,4,5)              104.8305         estimate D2E/DX2                !
 ! A11   A(3,4,7)              127.4298         estimate D2E/DX2                !
 ! A12   A(5,4,7)              127.7397         estimate D2E/DX2                !
 ! A13   A(1,5,4)              110.5462         estimate D2E/DX2                !
 ! A14   A(1,5,12)             119.9123         estimate D2E/DX2                !
 ! A15   A(4,5,12)             129.5415         estimate D2E/DX2                !
 ! A16   A(2,8,9)              114.6616         estimate D2E/DX2                !
 ! A17   A(2,8,10)             116.7798         estimate D2E/DX2                !
 ! A18   A(9,8,10)             128.5586         estimate D2E/DX2                !
 ! A19   A(8,10,14)            112.5957         estimate D2E/DX2                !
 ! A20   A(1,11,14)             94.75           estimate D2E/DX2                !
 ! A21   A(11,13,15)           114.7404         estimate D2E/DX2                !
 ! A22   A(14,13,15)           112.48           estimate D2E/DX2                !
 ! A23   A(10,14,11)           152.3706         estimate D2E/DX2                !
 ! A24   A(10,14,13)           163.4775         estimate D2E/DX2                !
 ! A25   L(1,11,13,10,-1)      168.7628         estimate D2E/DX2                !
 ! A26   L(1,11,13,10,-2)      178.2655         estimate D2E/DX2                !
 ! D1    D(5,1,2,3)             -0.0747         estimate D2E/DX2                !
 ! D2    D(5,1,2,8)           -179.7151         estimate D2E/DX2                !
 ! D3    D(11,1,2,3)           178.0017         estimate D2E/DX2                !
 ! D4    D(11,1,2,8)            -1.6387         estimate D2E/DX2                !
 ! D5    D(2,1,5,4)              0.0572         estimate D2E/DX2                !
 ! D6    D(2,1,5,12)          -179.9433         estimate D2E/DX2                !
 ! D7    D(11,1,5,4)          -177.3553         estimate D2E/DX2                !
 ! D8    D(11,1,5,12)            2.6442         estimate D2E/DX2                !
 ! D9    D(2,1,11,14)            6.5532         estimate D2E/DX2                !
 ! D10   D(5,1,11,14)         -176.195          estimate D2E/DX2                !
 ! D11   D(2,1,13,15)          109.8968         estimate D2E/DX2                !
 ! D12   D(5,1,13,15)          -71.8761         estimate D2E/DX2                !
 ! D13   D(1,2,3,4)              0.0632         estimate D2E/DX2                !
 ! D14   D(1,2,3,6)           -179.8565         estimate D2E/DX2                !
 ! D15   D(8,2,3,4)            179.6971         estimate D2E/DX2                !
 ! D16   D(8,2,3,6)             -0.2227         estimate D2E/DX2                !
 ! D17   D(1,2,8,9)           -179.5924         estimate D2E/DX2                !
 ! D18   D(1,2,8,10)             0.4882         estimate D2E/DX2                !
 ! D19   D(3,2,8,9)              0.8213         estimate D2E/DX2                !
 ! D20   D(3,2,8,10)          -179.0981         estimate D2E/DX2                !
 ! D21   D(2,3,4,5)             -0.0263         estimate D2E/DX2                !
 ! D22   D(2,3,4,7)           -179.9577         estimate D2E/DX2                !
 ! D23   D(6,3,4,5)            179.881          estimate D2E/DX2                !
 ! D24   D(6,3,4,7)             -0.0504         estimate D2E/DX2                !
 ! D25   D(3,4,5,1)             -0.0195         estimate D2E/DX2                !
 ! D26   D(3,4,5,12)           179.9811         estimate D2E/DX2                !
 ! D27   D(7,4,5,1)            179.9116         estimate D2E/DX2                !
 ! D28   D(7,4,5,12)            -0.0878         estimate D2E/DX2                !
 ! D29   D(2,8,10,14)           -8.9418         estimate D2E/DX2                !
 ! D30   D(9,8,10,14)          171.1518         estimate D2E/DX2                !
 ! D31   D(8,10,14,11)          32.506          estimate D2E/DX2                !
 ! D32   D(8,10,14,13)         130.4538         estimate D2E/DX2                !
 ! D33   D(1,11,14,10)         -31.1623         estimate D2E/DX2                !
 ! D34   D(15,13,14,10)        125.6025         estimate D2E/DX2                !
 --------------------------------------------------------------------------------
 Trust Radius=3.00D-01 FncErr=1.00D-07 GrdErr=1.00D-06 EigMax=2.50D+02 EigMin=1.00D-04
 Number of steps in this run=     87 maximum allowed number of steps=    100.
 GradGradGradGradGradGradGradGradGradGradGradGradGradGradGradGradGradGrad

                          Input orientation:                          
 ---------------------------------------------------------------------
 Center     Atomic      Atomic             Coordinates (Angstroms)
 Number     Number       Type             X           Y           Z
 ---------------------------------------------------------------------
      1          7           0        0.398974    0.989536   -0.010789
      2          7           0        0.348570   -0.362474    0.002005
      3          6           0        1.601718   -0.885060    0.010358
      4          6           0        2.489483    0.166261    0.004130
      5          6           0        1.681835    1.320022   -0.008858
      6          1           0        1.751311   -1.953776    0.018652
      7          1           0        3.567159    0.114548    0.007283
      8          6           0       -0.894923   -1.135524   -0.001551
      9          8           0       -0.740609   -2.357045    0.019758
     10          8           0       -1.970299   -0.480422   -0.027174
     11          1           0       -0.998353    1.721714   -0.071213
     12          1           0        1.970181    2.362042   -0.016798
     13          8           0       -1.874988    1.980509   -0.075292
     14          1           0       -1.839041    0.410205    0.089721
     15          1           0       -2.169299    2.432289    0.732821
 ---------------------------------------------------------------------
                    Distance matrix (angstroms):
                    1          2          3          4          5
     1  N    0.000000
     2  N    1.353010   0.000000
     3  C    2.227364   1.357772   0.000000
     4  C    2.246827   2.205238   1.376024   0.000000
     5  C    1.324748   2.146743   2.206621   1.408413   0.000000
     6  H    3.239254   2.121368   1.079167   2.244920   3.274651
     7  H    3.286841   3.253751   2.205036   1.078921   2.237828
     8  C    2.487998   1.464204   2.509201   3.626139   3.559416
     9  O    3.535419   2.272650   2.766464   4.098879   4.403394
    10  O    2.788279   2.322050   3.595059   4.506532   4.071857
    11  H    1.578689   2.482620   3.682702   3.819700   2.710840
    12  H    2.086265   3.170641   3.268054   2.256450   1.081209
    13  O    2.481349   3.231061   4.506252   4.727199   3.618238
    14  H    2.313966   2.321717   3.677340   4.336237   3.637864
    15  H    3.038177   3.832030   5.074182   5.231646   4.076574
                    6          7          8          9         10
     6  H    0.000000
     7  H    2.752344   0.000000
     8  C    2.769928   4.633890   0.000000
     9  O    2.524340   4.966467   1.231414   0.000000
    10  O    4.002906   5.569436   1.259464   2.244115   0.000000
    11  H    4.591073   4.840769   2.859957   4.087906   2.407492
    12  H    4.321510   2.757199   4.521285   5.442380   4.858713
    13  O    5.351399   5.753746   3.267358   4.484443   2.463246
    14  H    4.299312   5.414906   1.813551   2.978107   0.907805
    15  H    5.926111   6.229388   3.859097   5.048498   3.016799
                   11         12         13         14         15
    11  H    0.000000
    12  H    3.037298   0.000000
    13  O    0.914046   3.864494   0.000000
    14  H    1.566113   4.281493   1.579359   0.000000
    15  H    1.588239   4.207393   0.971479   2.147434   0.000000
 Stoichiometry    C4H6N2O3
 Framework group  C1[X(C4H6N2O3)]
 Deg. of freedom    39
 Full point group                 C1      NOp   1
 Largest Abelian subgroup         C1      NOp   1
 Largest concise Abelian subgroup C1      NOp   1
                         Standard orientation:                         
 ---------------------------------------------------------------------
 Center     Atomic      Atomic             Coordinates (Angstroms)
 Number     Number       Type             X           Y           Z
 ---------------------------------------------------------------------
      1          7           0       -0.421296   -0.988361   -0.011088
      2          7           0       -0.338602    0.362062    0.001352
      3          6           0       -1.578902    0.914432    0.010798
      4          6           0       -2.491530   -0.115386    0.005665
      5          6           0       -1.711682   -1.288111   -0.007843
      6          1           0       -1.702918    1.986418    0.018995
      7          1           0       -3.567660   -0.037947    0.009847
      8          6           0        0.922997    1.105190   -0.003580
      9          8           0        0.797923    2.330052    0.017602
     10          8           0        1.982393    0.424584   -0.030094
     11          1           0        0.958085   -1.753717   -0.072697
     12          1           0       -2.024842   -2.322948   -0.015270
     13          8           0        1.828284   -2.033378   -0.077565
     14          1           0        1.830014   -0.462630    0.087129
     15          1           0        2.112505   -2.491895    0.730366
 ---------------------------------------------------------------------
 Rotational constants (GHZ):           2.1498913           1.6292401           0.9290537
 Standard basis: 6-31+G(d,p) (6D, 7F)
 There are   201 symmetry adapted cartesian basis functions of A   symmetry.
 There are   201 symmetry adapted basis functions of A   symmetry.
   201 basis functions,   330 primitive gaussians,   201 cartesian basis functions
    34 alpha electrons       34 beta electrons
       nuclear repulsion energy       461.1315901150 Hartrees.
 NAtoms=   15 NActive=   15 NUniq=   15 SFac= 1.00D+00 NAtFMM=   60 NAOKFM=F Big=F
 Integral buffers will be    131072 words long.
 Raffenetti 2 integral format.
 Two-electron integral symmetry is turned on.
 ------------------------------------------------------------------------------
 Polarizable Continuum Model (PCM)
 =================================
 Model                : PCM.
 Atomic radii         : SMD-Coulomb.
 Polarization charges : Total charges.
 Charge compensation  : None.
 Solution method      : On-the-fly selection.
 Cavity type          : VdW (van der Waals Surface) (Alpha=1.000).
 Cavity algorithm     : GePol (No added spheres)
                        Default sphere list used, NSphG=   15.
                        Lebedev-Laikov grids with approx.  5.0 points / Ang**2.
                        Smoothing algorithm: York/Karplus (Gamma=1.0000).
                        Polarization charges: spherical gaussians, with
                                              point-specific exponents (IZeta= 3).
                        Self-potential: point-specific (ISelfS= 7).
                        Self-field    : sphere-specific E.n sum rule (ISelfD= 2).
 1st derivatives      : Analytical E(r).r(x)/FMM algorithm (CHGder, D1EAlg=3).
                        Cavity 1st derivative terms included.
 Solvent              : Water, Eps=  78.355300 Eps(inf)=   1.777849
 ------------------------------------------------------------------------------
 Spheres list:
 ISph  on   Nord     Re0    Alpha      Xe            Ye            Ze
    1   N      1    1.8900  1.000     -0.421296     -0.988361     -0.011088
    2   N      2    1.8900  1.000     -0.338602      0.362062      0.001352
    3   C      3    1.8500  1.000     -1.578902      0.914432      0.010798
    4   C      4    1.8500  1.000     -2.491530     -0.115386      0.005665
    5   C      5    1.8500  1.000     -1.711682     -1.288111     -0.007843
    6   H      6    1.2000  1.000     -1.702918      1.986418      0.018995
    7   H      7    1.2000  1.000     -3.567660     -0.037947      0.009847
    8   C      8    1.8500  1.000      0.922997      1.105190     -0.003580
    9   O      9    1.5200  1.000      0.797923      2.330052      0.017602
   10   O     10    1.5200  1.000      1.982393      0.424584     -0.030094
   11   H     11    1.2000  1.000      0.958085     -1.753717     -0.072697
   12   H     12    1.2000  1.000     -2.024842     -2.322948     -0.015270
   13   O     13    1.5200  1.000      1.828284     -2.033378     -0.077565
   14   H     14    1.2000  1.000      1.830014     -0.462630      0.087129
   15   H     15    1.2000  1.000      2.112505     -2.491895      0.730366
 ------------------------------------------------------------------------------
 ------------------------------------------------------------------------------
 Atomic radii for non-electrostatic terms: SMD-CDS.
 ------------------------------------------------------------------------------
 Nuclear repulsion after PCM non-electrostatic terms =      461.1405921198 Hartrees.
 One-electron integrals computed using PRISM.
 NBasis=   201 RedAO= T EigKep=  3.37D-05  NBF=   201
 NBsUse=   201 1.00D-06 EigRej= -1.00D+00 NBFU=   201
 ExpMin= 4.38D-02 ExpMax= 5.48D+03 ExpMxC= 8.25D+02 IAcc=3 IRadAn=         5 AccDes= 0.00D+00
 Harris functional with IExCor= 1009 and IRadAn=       5 diagonalized for initial guess.
 HarFok:  IExCor= 1009 AccDes= 0.00D+00 IRadAn=         5 IDoV= 1 UseB2=F ITyADJ=14
 ICtDFT=  3500011 ScaDFX=  1.000000  1.000000  1.000000  1.000000
 FoFCou: FMM=F IPFlag=           0 FMFlag=      100000 FMFlg1=           0
         NFxFlg=           0 DoJE=T BraDBF=F KetDBF=T FulRan=T
         wScrn=  0.000000 ICntrl=       500 IOpCl=  0 I1Cent=   200000004 NGrid=           0
         NMat0=    1 NMatS0=      1 NMatT0=    0 NMatD0=    1 NMtDS0=    0 NMtDT0=    0
 Petite list used in FoFCou.
 Requested convergence on RMS density matrix=1.00D-08 within 128 cycles.
 Requested convergence on MAX density matrix=1.00D-06.
 Requested convergence on             energy=1.00D-06.
 No special actions if energy rises.
 Inv3:  Mode=1 IEnd=     4099683.
 Iteration    1 A*A^-1 deviation from unit magnitude is 3.33D-15 for    578.
 Iteration    1 A*A^-1 deviation from orthogonality  is 1.56D-15 for   1162   1016.
 Iteration    1 A^-1*A deviation from unit magnitude is 3.66D-15 for    585.
 Iteration    1 A^-1*A deviation from orthogonality  is 3.07D-13 for    830    772.
 Error on total polarization charges =  0.04599
 SCF Done:  E(RM062X) =  -491.034341158     A.U. after   14 cycles
            NFock= 14  Conv=0.43D-08     -V/T= 2.0074
 SMD-CDS (non-electrostatic) energy       (kcal/mol) =       5.65
 (included in total energy above)

 **********************************************************************

            Population analysis using the SCF density.

 **********************************************************************

 Orbital symmetries:
       Occupied  (A) (A) (A) (A) (A) (A) (A) (A) (A) (A) (A) (A)
                 (A) (A) (A) (A) (A) (A) (A) (A) (A) (A) (A) (A)
                 (A) (A) (A) (A) (A) (A) (A) (A) (A) (A)
       Virtual   (A) (A) (A) (A) (A) (A) (A) (A) (A) (A) (A) (A)
                 (A) (A) (A) (A) (A) (A) (A) (A) (A) (A) (A) (A)
                 (A) (A) (A) (A) (A) (A) (A) (A) (A) (A) (A) (A)
                 (A) (A) (A) (A) (A) (A) (A) (A) (A) (A) (A) (A)
                 (A) (A) (A) (A) (A) (A) (A) (A) (A) (A) (A) (A)
                 (A) (A) (A) (A) (A) (A) (A) (A) (A) (A) (A) (A)
                 (A) (A) (A) (A) (A) (A) (A) (A) (A) (A) (A) (A)
                 (A) (A) (A) (A) (A) (A) (A) (A) (A) (A) (A) (A)
                 (A) (A) (A) (A) (A) (A) (A) (A) (A) (A) (A) (A)
                 (A) (A) (A) (A) (A) (A) (A) (A) (A) (A) (A) (A)
                 (A) (A) (A) (A) (A) (A) (A) (A) (A) (A) (A) (A)
                 (A) (A) (A) (A) (A) (A) (A) (A) (A) (A) (A) (A)
                 (A) (A) (A) (A) (A) (A) (A) (A) (A) (A) (A) (A)
                 (A) (A) (A) (A) (A) (A) (A) (A) (A) (A) (A)
 The electronic state is 1-A.
 Alpha  occ. eigenvalues --  -19.71503 -19.66029 -19.63612 -14.87190 -14.81329
 Alpha  occ. eigenvalues --  -10.75667 -10.60409 -10.59465 -10.55889  -1.30264
 Alpha  occ. eigenvalues --   -1.19635  -1.17486  -1.14435  -0.95607  -0.90216
 Alpha  occ. eigenvalues --   -0.78187  -0.74100  -0.70572  -0.66833  -0.62288
 Alpha  occ. eigenvalues --   -0.59843  -0.57919  -0.56944  -0.52616  -0.51469
 Alpha  occ. eigenvalues --   -0.49476  -0.48349  -0.47220  -0.42165  -0.41350
 Alpha  occ. eigenvalues --   -0.39528  -0.39105  -0.34504  -0.32807
 Alpha virt. eigenvalues --   -0.01230   0.01882   0.03752   0.04169   0.04557
 Alpha virt. eigenvalues --    0.05786   0.06310   0.07043   0.07178   0.08734
 Alpha virt. eigenvalues --    0.09344   0.10167   0.10916   0.11349   0.12612
 Alpha virt. eigenvalues --    0.14248   0.15069   0.15762   0.17207   0.18932
 Alpha virt. eigenvalues --    0.20356   0.20681   0.21114   0.21578   0.22775
 Alpha virt. eigenvalues --    0.23348   0.24362   0.25074   0.25584   0.25794
 Alpha virt. eigenvalues --    0.26372   0.26938   0.27752   0.28480   0.29520
 Alpha virt. eigenvalues --    0.29727   0.30382   0.31124   0.32594   0.34359
 Alpha virt. eigenvalues --    0.35691   0.36037   0.37806   0.40170   0.40846
 Alpha virt. eigenvalues --    0.43157   0.43451   0.45985   0.47920   0.49003
 Alpha virt. eigenvalues --    0.50155   0.53543   0.64051   0.71467   0.73048
 Alpha virt. eigenvalues --    0.75416   0.75588   0.78156   0.78895   0.81964
 Alpha virt. eigenvalues --    0.85144   0.90654   0.91569   0.93681   0.95396
 Alpha virt. eigenvalues --    0.97804   0.99831   1.00476   1.03338   1.05881
 Alpha virt. eigenvalues --    1.07263   1.11806   1.14880   1.15808   1.19513
 Alpha virt. eigenvalues --    1.20178   1.21341   1.22268   1.24853   1.25448
 Alpha virt. eigenvalues --    1.27024   1.29764   1.32519   1.33268   1.35471
 Alpha virt. eigenvalues --    1.36258   1.38132   1.39242   1.40244   1.40491
 Alpha virt. eigenvalues --    1.42773   1.43448   1.45838   1.49567   1.52419
 Alpha virt. eigenvalues --    1.53368   1.57627   1.60153   1.62519   1.63681
 Alpha virt. eigenvalues --    1.66179   1.74185   1.75295   1.77854   1.79807
 Alpha virt. eigenvalues --    1.83742   1.87047   1.89716   1.93157   1.94818
 Alpha virt. eigenvalues --    1.97081   1.98276   2.01693   2.05252   2.07136
 Alpha virt. eigenvalues --    2.10981   2.14739   2.16563   2.24308   2.25504
 Alpha virt. eigenvalues --    2.27476   2.29150   2.33983   2.39032   2.39421
 Alpha virt. eigenvalues --    2.41648   2.43380   2.48397   2.54085   2.54730
 Alpha virt. eigenvalues --    2.56569   2.57559   2.58692   2.65312   2.66924
 Alpha virt. eigenvalues --    2.69629   2.74082   2.74942   2.76229   2.81827
 Alpha virt. eigenvalues --    2.86148   2.89032   2.93092   2.94894   3.00860
 Alpha virt. eigenvalues --    3.03375   3.06814   3.13411   3.14532   3.20922
 Alpha virt. eigenvalues --    3.25819   3.29517   3.39288   3.46889   3.50417
 Alpha virt. eigenvalues --    3.78201   3.84634   3.92996   4.13795   4.30294
 Alpha virt. eigenvalues --    4.34615   4.41859   4.50537   4.58616   4.63698
 Alpha virt. eigenvalues --    4.77026   4.79007
          Condensed to atoms (all electrons):
               1          2          3          4          5          6
     1  N    7.254195  -0.019779  -0.117652  -0.044099   0.232062   0.006364
     2  N   -0.019779   7.109803   0.371659  -0.266335   0.156677  -0.053010
     3  C   -0.117652   0.371659   5.492786   0.291638  -0.054719   0.424912
     4  C   -0.044099  -0.266335   0.291638   5.307913   0.346963  -0.033978
     5  C    0.232062   0.156677  -0.054719   0.346963   5.238731  -0.004320
     6  H    0.006364  -0.053010   0.424912  -0.033978  -0.004320   0.418133
     7  H    0.012959  -0.005626   0.005749   0.333482  -0.006587  -0.000447
     8  C    0.057925   0.102926  -0.150985   0.003502  -0.019156  -0.006680
     9  O   -0.007195  -0.112769  -0.061767   0.045408   0.004090  -0.000198
    10  O   -0.083240  -0.057819   0.047865   0.000276   0.004124  -0.000544
    11  H    0.041974   0.004284   0.004620   0.000370  -0.005592  -0.000003
    12  H   -0.068298   0.021545  -0.001201  -0.036243   0.415104  -0.000078
    13  O   -0.020730  -0.028230  -0.002070  -0.001237  -0.011423   0.000045
    14  H    0.029999  -0.015864  -0.005831  -0.000021   0.001363   0.000008
    15  H    0.002490  -0.002007   0.000442  -0.000200   0.001198  -0.000000
               7          8          9         10         11         12
     1  N    0.012959   0.057925  -0.007195  -0.083240   0.041974  -0.068298
     2  N   -0.005626   0.102926  -0.112769  -0.057819   0.004284   0.021545
     3  C    0.005749  -0.150985  -0.061767   0.047865   0.004620  -0.001201
     4  C    0.333482   0.003502   0.045408   0.000276   0.000370  -0.036243
     5  C   -0.006587  -0.019156   0.004090   0.004124  -0.005592   0.415104
     6  H   -0.000447  -0.006680  -0.000198  -0.000544  -0.000003  -0.000078
     7  H    0.437335  -0.002056  -0.000136   0.000055  -0.000014  -0.000503
     8  C   -0.002056   4.481969   0.490295   0.203660  -0.003915   0.001067
     9  O   -0.000136   0.490295   8.280291  -0.082217   0.000333   0.000056
    10  O    0.000055   0.203660  -0.082217   8.344160   0.001835  -0.000014
    11  H   -0.000014  -0.003915   0.000333   0.001835   0.273021  -0.000294
    12  H   -0.000503   0.001067   0.000056  -0.000014  -0.000294   0.438674
    13  O    0.000039   0.015345  -0.002793  -0.079078   0.213528  -0.000007
    14  H   -0.000001   0.020494   0.004609   0.171361   0.001579   0.000004
    15  H   -0.000000  -0.000628   0.000007   0.000730  -0.014964  -0.000009
              13         14         15
     1  N   -0.020730   0.029999   0.002490
     2  N   -0.028230  -0.015864  -0.002007
     3  C   -0.002070  -0.005831   0.000442
     4  C   -0.001237  -0.000021  -0.000200
     5  C   -0.011423   0.001363   0.001198
     6  H    0.000045   0.000008  -0.000000
     7  H    0.000039  -0.000001  -0.000000
     8  C    0.015345   0.020494  -0.000628
     9  O   -0.002793   0.004609   0.000007
    10  O   -0.079078   0.171361   0.000730
    11  H    0.213528   0.001579  -0.014964
    12  H   -0.000007   0.000004  -0.000009
    13  O    8.423826   0.075001   0.302901
    14  H    0.075001   0.280690  -0.004333
    15  H    0.302901  -0.004333   0.262414
 Mulliken charges:
               1
     1  N   -0.276975
     2  N   -0.205456
     3  C   -0.245445
     4  C    0.052560
     5  C   -0.298516
     6  H    0.249795
     7  H    0.225752
     8  C    0.806237
     9  O   -0.558014
    10  O   -0.471156
    11  H    0.483239
    12  H    0.230197
    13  O   -0.885119
    14  H    0.440941
    15  H    0.451959
 Sum of Mulliken charges =  -0.00000
 Mulliken charges with hydrogens summed into heavy atoms:
               1
     1  N   -0.276975
     2  N   -0.205456
     3  C    0.004349
     4  C    0.278312
     5  C   -0.068319
     8  C    0.806237
     9  O   -0.558014
    10  O   -0.030214
    13  O    0.050080
 Electronic spatial extent (au):  <R**2>=           1175.4328
 Charge=             -0.0000 electrons
 Dipole moment (field-independent basis, Debye):
    X=             -4.4472    Y=             -3.9392    Z=              2.1393  Tot=              6.3144
 Quadrupole moment (field-independent basis, Debye-Ang):
   XX=            -47.8765   YY=            -57.3924   ZZ=            -52.9748
   XY=             -3.9686   XZ=              4.7506   YZ=             -5.2147
 Traceless Quadrupole moment (field-independent basis, Debye-Ang):
   XX=              4.8714   YY=             -4.6445   ZZ=             -0.2269
   XY=             -3.9686   XZ=              4.7506   YZ=             -5.2147
 Octapole moment (field-independent basis, Debye-Ang**2):
  XXX=            -20.5357  YYY=            -40.7054  ZZZ=              2.1605  XYY=            -14.8335
  XXY=            -11.3781  XXZ=             10.8102  XZZ=             12.6110  YZZ=             -1.8424
  YYZ=             13.0129  XYZ=            -11.4653
 Hexadecapole moment (field-independent basis, Debye-Ang**3):
 XXXX=           -744.8904 YYYY=           -636.3978 ZZZZ=            -54.5491 XXXY=            -18.3139
 XXXZ=             24.5589 YYYX=            -40.3234 YYYZ=            -36.0016 ZZZX=              4.9919
 ZZZY=             -5.7275 XXYY=           -215.3307 XXZZ=           -152.5973 YYZZ=           -107.4515
 XXYZ=            -25.0470 YYXZ=             28.5255 ZZXY=             -7.8550
 N-N= 4.611405921198D+02 E-N=-2.070117998159D+03  KE= 4.874279298532D+02
 D1PCM: PCM CHGder 1st derivatives, ID1Alg=3 FixD1E=F DoIter=F DoCFld=F I1PDM=0.
 Calling FoFJK, ICntrl=      2127 FMM=F ISym2X=0 I1Cent= 0 IOpClX= 0 NMat=1 NMatS=1 NMatT=0.
 ***** Axes restored to original set *****
 -------------------------------------------------------------------
 Center     Atomic                   Forces (Hartrees/Bohr)
 Number     Number              X              Y              Z
 -------------------------------------------------------------------
      1        7           0.007883413   -0.002764269   -0.001114463
      2        7          -0.009381502    0.000535025   -0.000106069
      3        6           0.007186744   -0.006549927    0.000334773
      4        6          -0.000257013   -0.005695263    0.000158824
      5        6          -0.007334148   -0.003197982    0.000071604
      6        1           0.000699745   -0.000191214    0.000110358
      7        1           0.000076707   -0.000717589    0.000019205
      8        6           0.075869423   -0.048543536    0.002778245
      9        8          -0.017569541    0.027199346   -0.002457476
     10        8          -0.040926368   -0.091299723   -0.009024797
     11        1           0.085248152   -0.001969657    0.009465728
     12        1          -0.000191536   -0.000015684   -0.000099435
     13        8          -0.106620583    0.036426773   -0.003662487
     14        1          -0.004692397    0.100795576    0.007897585
     15        1           0.010008904   -0.004011877   -0.004371595
 -------------------------------------------------------------------
 Cartesian Forces:  Max     0.106620583 RMS     0.033355703

 GradGradGradGradGradGradGradGradGradGradGradGradGradGradGradGradGradGrad
 Berny optimization.
 FormGI is forming the generalized inverse of G from B-inverse, IUseBI=4.
 Internal  Forces:  Max     0.106377542 RMS     0.018627000
 Search for a local minimum.
 Step number   1 out of a maximum of   87
 All quantities printed in internal units (Hartrees-Bohrs-Radians)
 Mixed Optimization -- RFO/linear search
 Second derivative matrix not updated -- first step.
 ITU=  0
     Eigenvalues ---    0.00910   0.01484   0.01550   0.01666   0.01846
     Eigenvalues ---    0.02055   0.02152   0.02283   0.02318   0.02344
     Eigenvalues ---    0.02435   0.04807   0.05412   0.06630   0.08951
     Eigenvalues ---    0.09872   0.12948   0.16000   0.16000   0.16000
     Eigenvalues ---    0.16854   0.21744   0.23090   0.23557   0.25000
     Eigenvalues ---    0.34724   0.35849   0.36095   0.36125   0.40323
     Eigenvalues ---    0.44551   0.49045   0.51388   0.53076   0.58489
     Eigenvalues ---    0.59755   0.65600   0.76439   0.90500
 RFO step:  Lambda=-4.60317532D-02 EMin= 9.09562984D-03
 Linear search not attempted -- first point.
 Maximum step size (   0.300) exceeded in Quadratic search.
    -- Step size scaled by   0.927
 Iteration  1 RMS(Cart)=  0.04873119 RMS(Int)=  0.00232048
 Iteration  2 RMS(Cart)=  0.00107231 RMS(Int)=  0.00059910
 Iteration  3 RMS(Cart)=  0.00000973 RMS(Int)=  0.00059879
 Iteration  4 RMS(Cart)=  0.00000002 RMS(Int)=  0.00059879
 Variable       Old X    -DE/DX   Delta X   Delta X   Delta X     New X
                                 (Linear)    (Quad)   (Total)
    R1        2.55682   0.01446   0.00000   0.01552   0.01491   2.57173
    R2        2.50341  -0.00299   0.00000  -0.00456  -0.00444   2.49897
    R3        2.98329   0.02430   0.00000   0.14848   0.14899   3.13228
    R4        2.56582   0.00551   0.00000   0.00908   0.00896   2.57478
    R5        2.76694  -0.01130   0.00000  -0.03163  -0.03269   2.73426
    R6        2.60031  -0.00668   0.00000  -0.01106  -0.01112   2.58918
    R7        2.03933   0.00029   0.00000   0.00066   0.00066   2.03998
    R8        2.66152   0.00583   0.00000   0.01093   0.01102   2.67253
    R9        2.03886   0.00011   0.00000   0.00025   0.00025   2.03912
   R10        2.04319  -0.00007   0.00000  -0.00015  -0.00015   2.04304
   R11        2.32704  -0.02922   0.00000  -0.02850  -0.02850   2.29854
   R12        2.38004   0.04420   0.00000   0.05074   0.05027   2.43031
   R13        1.71550   0.10638   0.00000   0.14105   0.14169   1.85719
   R14        1.72730   0.09283   0.00000   0.13158   0.13154   1.85884
   R15        2.95952  -0.00142   0.00000   0.03151   0.03259   2.99211
   R16        2.98456   0.01432   0.00000   0.05636   0.05624   3.04080
   R17        1.83583  -0.00853   0.00000  -0.01372  -0.01372   1.82211
    A1        1.86017  -0.01036   0.00000  -0.02909  -0.02922   1.83095
    A2        2.01621   0.01716   0.00000   0.04521   0.04548   2.06169
    A3        2.40608  -0.00684   0.00000  -0.01602  -0.01616   2.38991
    A4        1.92866   0.00464   0.00000   0.02250   0.02290   1.95156
    A5        2.16421   0.00855   0.00000   0.00496   0.00385   2.16805
    A6        2.19030  -0.01320   0.00000  -0.02746  -0.02675   2.16355
    A7        1.87692  -0.00273   0.00000  -0.01306  -0.01332   1.86359
    A8        2.10498   0.00205   0.00000   0.00959   0.00972   2.11470
    A9        2.30128   0.00069   0.00000   0.00347   0.00360   2.30489
   A10        1.82964   0.00151   0.00000   0.00102   0.00094   1.83058
   A11        2.22407  -0.00148   0.00000  -0.00378  -0.00374   2.22033
   A12        2.22948  -0.00003   0.00000   0.00276   0.00280   2.23228
   A13        1.92940   0.00694   0.00000   0.01862   0.01870   1.94810
   A14        2.09286  -0.00366   0.00000  -0.01015  -0.01019   2.08268
   A15        2.26093  -0.00328   0.00000  -0.00848  -0.00852   2.25241
   A16        2.00122   0.01564   0.00000   0.05042   0.05096   2.05218
   A17        2.03819   0.00139   0.00000   0.00151   0.00023   2.03842
   A18        2.24377  -0.01703   0.00000  -0.05195  -0.05140   2.19237
   A19        1.96517  -0.00060   0.00000   0.03841   0.03885   2.00402
   A20        1.65370  -0.00412   0.00000  -0.04955  -0.04755   1.60615
   A21        2.00260  -0.00598   0.00000  -0.05079  -0.05098   1.95162
   A22        1.96315   0.00213   0.00000   0.00687   0.00449   1.96764
   A23        2.65937  -0.02363   0.00000  -0.03199  -0.03222   2.62715
   A24        2.85322  -0.01179   0.00000   0.00767   0.00906   2.86228
   A25        2.94547  -0.01190   0.00000  -0.05612  -0.05547   2.89000
   A26        3.11132   0.00106   0.00000   0.00455   0.00498   3.11630
    D1       -0.00130   0.00051   0.00000   0.00061   0.00063  -0.00067
    D2       -3.13662   0.00148   0.00000   0.00092   0.00102  -3.13560
    D3        3.10672  -0.00061   0.00000   0.00238   0.00242   3.10914
    D4       -0.02860   0.00037   0.00000   0.00268   0.00281  -0.02580
    D5        0.00100  -0.00058   0.00000  -0.00018  -0.00021   0.00079
    D6       -3.14060  -0.00042   0.00000   0.00002   0.00001  -3.14060
    D7       -3.09543   0.00021   0.00000  -0.00433  -0.00431  -3.09975
    D8        0.04615   0.00037   0.00000  -0.00413  -0.00410   0.04205
    D9        0.11437   0.00654   0.00000  -0.00447  -0.00531   0.10906
   D10       -3.07518   0.00516   0.00000  -0.00151  -0.00233  -3.07752
   D11        1.91806  -0.00018   0.00000  -0.00523  -0.00377   1.91429
   D12       -1.25447  -0.00177   0.00000  -0.00496  -0.00403  -1.25850
   D13        0.00110  -0.00023   0.00000  -0.00081  -0.00081   0.00029
   D14       -3.13909   0.00004   0.00000  -0.00078  -0.00077  -3.13986
   D15        3.13631  -0.00113   0.00000  -0.00097  -0.00106   3.13524
   D16       -0.00389  -0.00086   0.00000  -0.00094  -0.00102  -0.00491
   D17       -3.13448  -0.00227   0.00000  -0.01406  -0.01442   3.13428
   D18        0.00852  -0.00101   0.00000   0.00498   0.00517   0.01369
   D19        0.01433  -0.00123   0.00000  -0.01391  -0.01419   0.00015
   D20       -3.12585   0.00003   0.00000   0.00512   0.00541  -3.12045
   D21       -0.00046  -0.00012   0.00000   0.00067   0.00065   0.00019
   D22       -3.14085   0.00020   0.00000   0.00027   0.00028  -3.14057
   D23        3.13952  -0.00043   0.00000   0.00065   0.00061   3.14012
   D24       -0.00088  -0.00011   0.00000   0.00025   0.00024  -0.00064
   D25       -0.00034   0.00043   0.00000  -0.00032  -0.00029  -0.00063
   D26        3.14126   0.00025   0.00000  -0.00055  -0.00053   3.14073
   D27        3.14005   0.00011   0.00000   0.00007   0.00007   3.14012
   D28       -0.00153  -0.00007   0.00000  -0.00016  -0.00016  -0.00170
   D29       -0.15606  -0.00126   0.00000  -0.00203  -0.00186  -0.15793
   D30        2.98716   0.00016   0.00000   0.01998   0.01940   3.00656
   D31        0.56734  -0.00844   0.00000  -0.04544  -0.04505   0.52228
   D32        2.27685   0.00962   0.00000   0.01383   0.01347   2.29032
   D33       -0.54388   0.00910   0.00000   0.06270   0.06198  -0.48190
   D34        2.19218   0.00857   0.00000   0.06319   0.06211   2.25429
         Item               Value     Threshold  Converged?
 Maximum Force            0.106378     0.000450     NO 
 RMS     Force            0.018627     0.000300     NO 
 Maximum Displacement     0.212004     0.001800     NO 
 RMS     Displacement     0.048557     0.001200     NO 
 Predicted change in Energy=-2.515613D-02
 GradGradGradGradGradGradGradGradGradGradGradGradGradGradGradGradGradGrad

                          Input orientation:                          
 ---------------------------------------------------------------------
 Center     Atomic      Atomic             Coordinates (Angstroms)
 Number     Number       Type             X           Y           Z
 ---------------------------------------------------------------------
      1          7           0        0.406401    0.983940   -0.010417
      2          7           0        0.376455   -0.376556    0.003903
      3          6           0        1.629936   -0.910574    0.011311
      4          6           0        2.507950    0.141223    0.001829
      5          6           0        1.691474    1.295903   -0.011037
      6          1           0        1.781790   -1.979308    0.021206
      7          1           0        3.585860    0.091573    0.003110
      8          6           0       -0.837543   -1.163796    0.002531
      9          8           0       -0.723491   -2.374757    0.008532
     10          8           0       -1.948294   -0.516343   -0.029084
     11          1           0       -1.037004    1.796721   -0.068474
     12          1           0        1.983734    2.336736   -0.020492
     13          8           0       -1.987176    2.051114   -0.074407
     14          1           0       -1.863010    0.455341    0.091009
     15          1           0       -2.245364    2.491606    0.743533
 ---------------------------------------------------------------------
                    Distance matrix (angstroms):
                    1          2          3          4          5
     1  N    0.000000
     2  N    1.360901   0.000000
     3  C    2.255370   1.362514   0.000000
     4  C    2.264251   2.193483   1.370137   0.000000
     5  C    1.322397   2.127584   2.207448   1.414244   0.000000
     6  H    3.267037   2.131684   1.079514   2.241503   3.276615
     7  H    3.302342   3.243366   2.197727   1.079054   2.244841
     8  C    2.482002   1.446907   2.480454   3.591016   3.527921
     9  O    3.543708   2.280945   2.771725   4.095414   4.393880
    10  O    2.792094   2.329182   3.600109   4.504605   4.066014
    11  H    1.657529   2.593499   3.801103   3.913096   2.774655
    12  H    2.078013   3.153711   3.266681   2.257339   1.081128
    13  O    2.621481   3.389168   4.675729   4.884634   3.755905
    14  H    2.332366   2.390574   3.751366   4.383140   3.653945
    15  H    3.142189   3.955672   5.208543   5.354290   4.183033
                    6          7          8          9         10
     6  H    0.000000
     7  H    2.746551   0.000000
     8  C    2.743412   4.598091   0.000000
     9  O    2.536331   4.965211   1.216335   0.000000
    10  O    4.007034   5.567537   1.286065   2.226042   0.000000
    11  H    4.712965   4.927833   2.968078   4.183952   2.486416
    12  H    4.320967   2.758283   4.495982   5.433974   4.858084
    13  O    5.518926   5.908006   3.415146   4.603489   2.568151
    14  H    4.383715   5.461707   1.918598   3.052010   0.982785
    15  H    6.060428   6.349138   3.986603   5.151486   3.119766
                   11         12         13         14         15
    11  H    0.000000
    12  H    3.069003   0.000000
    13  O    0.983654   3.981534   0.000000
    14  H    1.583357   4.283634   1.609120   0.000000
    15  H    1.613181   4.300347   0.964220   2.172178   0.000000
 Stoichiometry    C4H6N2O3
 Framework group  C1[X(C4H6N2O3)]
 Deg. of freedom    39
 Full point group                 C1      NOp   1
 Largest Abelian subgroup         C1      NOp   1
 Largest concise Abelian subgroup C1      NOp   1
                         Standard orientation:                         
 ---------------------------------------------------------------------
 Center     Atomic      Atomic             Coordinates (Angstroms)
 Number     Number       Type             X           Y           Z
 ---------------------------------------------------------------------
      1          7           0       -0.313424   -1.030910   -0.011197
      2          7           0       -0.400738    0.327092    0.004857
      3          6           0       -1.695542    0.751167    0.014223
      4          6           0       -2.479724   -0.372324    0.004266
      5          6           0       -1.566857   -1.452383   -0.010922
      6          1           0       -1.938858    1.802840    0.025657
      7          1           0       -3.557904   -0.415690    0.006700
      8          6           0        0.740952    1.215958    0.003278
      9          8           0        0.523044    2.412590    0.010963
     10          8           0        1.903299    0.666607   -0.030299
     11          1           0        1.194549   -1.716294   -0.071765
     12          1           0       -1.768406   -2.514507   -0.021431
     13          8           0        2.163091   -1.887906   -0.078989
     14          1           0        1.902146   -0.308956    0.088621
     15          1           0        2.459169   -2.305511    0.738119
 ---------------------------------------------------------------------
 Rotational constants (GHZ):           2.0769786           1.5937646           0.9039151
 Standard basis: 6-31+G(d,p) (6D, 7F)
 There are   201 symmetry adapted cartesian basis functions of A   symmetry.
 There are   201 symmetry adapted basis functions of A   symmetry.
   201 basis functions,   330 primitive gaussians,   201 cartesian basis functions
    34 alpha electrons       34 beta electrons
       nuclear repulsion energy       456.7866057978 Hartrees.
 NAtoms=   15 NActive=   15 NUniq=   15 SFac= 1.00D+00 NAtFMM=   60 NAOKFM=F Big=F
 Integral buffers will be    131072 words long.
 Raffenetti 2 integral format.
 Two-electron integral symmetry is turned on.
 ------------------------------------------------------------------------------
 Polarizable Continuum Model (PCM)
 =================================
 Model                : PCM.
 Atomic radii         : SMD-Coulomb.
 Polarization charges : Total charges.
 Charge compensation  : None.
 Solution method      : On-the-fly selection.
 Cavity type          : VdW (van der Waals Surface) (Alpha=1.000).
 Cavity algorithm     : GePol (No added spheres)
                        Default sphere list used, NSphG=   15.
                        Lebedev-Laikov grids with approx.  5.0 points / Ang**2.
                        Smoothing algorithm: York/Karplus (Gamma=1.0000).
                        Polarization charges: spherical gaussians, with
                                              point-specific exponents (IZeta= 3).
                        Self-potential: point-specific (ISelfS= 7).
                        Self-field    : sphere-specific E.n sum rule (ISelfD= 2).
 1st derivatives      : Analytical E(r).r(x)/FMM algorithm (CHGder, D1EAlg=3).
                        Cavity 1st derivative terms included.
 Solvent              : Water, Eps=  78.355300 Eps(inf)=   1.777849
 ------------------------------------------------------------------------------
 Spheres list:
 ISph  on   Nord     Re0    Alpha      Xe            Ye            Ze
    1   N      1    1.8900  1.000     -0.313424     -1.030910     -0.011197
    2   N      2    1.8900  1.000     -0.400738      0.327092      0.004857
    3   C      3    1.8500  1.000     -1.695542      0.751167      0.014223
    4   C      4    1.8500  1.000     -2.479724     -0.372324      0.004266
    5   C      5    1.8500  1.000     -1.566857     -1.452383     -0.010922
    6   H      6    1.2000  1.000     -1.938858      1.802840      0.025657
    7   H      7    1.2000  1.000     -3.557904     -0.415690      0.006700
    8   C      8    1.8500  1.000      0.740952      1.215958      0.003278
    9   O      9    1.5200  1.000      0.523044      2.412590      0.010963
   10   O     10    1.5200  1.000      1.903299      0.666607     -0.030299
   11   H     11    1.2000  1.000      1.194549     -1.716294     -0.071765
   12   H     12    1.2000  1.000     -1.768406     -2.514507     -0.021431
   13   O     13    1.5200  1.000      2.163091     -1.887906     -0.078989
   14   H     14    1.2000  1.000      1.902146     -0.308956      0.088621
   15   H     15    1.2000  1.000      2.459169     -2.305511      0.738119
 ------------------------------------------------------------------------------
 ------------------------------------------------------------------------------
 Atomic radii for non-electrostatic terms: SMD-CDS.
 ------------------------------------------------------------------------------
 Nuclear repulsion after PCM non-electrostatic terms =      456.7955823645 Hartrees.
 One-electron integrals computed using PRISM.
 NBasis=   201 RedAO= T EigKep=  3.47D-05  NBF=   201
 NBsUse=   201 1.00D-06 EigRej= -1.00D+00 NBFU=   201
 Initial guess from the checkpoint file:  "/scratch/gongke2021/bizuo-PC/Gau-22728.chk"
 B after Tr=     0.000000   -0.000000   -0.000000
         Rot=    0.998361   -0.000035    0.000083   -0.057234 Ang=  -6.56 deg.
 ExpMin= 4.38D-02 ExpMax= 5.48D+03 ExpMxC= 8.25D+02 IAcc=2 IRadAn=         4 AccDes= 0.00D+00
 Harris functional with IExCor= 1009 and IRadAn=       4 diagonalized for initial guess.
 HarFok:  IExCor= 1009 AccDes= 0.00D+00 IRadAn=         4 IDoV= 1 UseB2=F ITyADJ=14
 ICtDFT=  3500011 ScaDFX=  1.000000  1.000000  1.000000  1.000000
 FoFCou: FMM=F IPFlag=           0 FMFlag=      100000 FMFlg1=           0
         NFxFlg=           0 DoJE=T BraDBF=F KetDBF=T FulRan=T
         wScrn=  0.000000 ICntrl=       500 IOpCl=  0 I1Cent=   200000004 NGrid=           0
         NMat0=    1 NMatS0=      1 NMatT0=    0 NMatD0=    1 NMtDS0=    0 NMtDT0=    0
 Petite list used in FoFCou.
 Requested convergence on RMS density matrix=1.00D-08 within 128 cycles.
 Requested convergence on MAX density matrix=1.00D-06.
 Requested convergence on             energy=1.00D-06.
 No special actions if energy rises.
 Inv3:  Mode=1 IEnd=     4078668.
 Iteration    1 A*A^-1 deviation from unit magnitude is 3.33D-15 for   1145.
 Iteration    1 A*A^-1 deviation from orthogonality  is 1.74D-15 for    324     33.
 Iteration    1 A^-1*A deviation from unit magnitude is 3.11D-15 for   1145.
 Iteration    1 A^-1*A deviation from orthogonality  is 1.44D-15 for   1070    993.
 Error on total polarization charges =  0.04627
 SCF Done:  E(RM062X) =  -491.059518264     A.U. after   12 cycles
            NFock= 12  Conv=0.53D-08     -V/T= 2.0082
 SMD-CDS (non-electrostatic) energy       (kcal/mol) =       5.63
 (included in total energy above)
 D1PCM: PCM CHGder 1st derivatives, ID1Alg=3 FixD1E=F DoIter=F DoCFld=F I1PDM=0.
 Calling FoFJK, ICntrl=      2127 FMM=F ISym2X=0 I1Cent= 0 IOpClX= 0 NMat=1 NMatS=1 NMatT=0.
 ***** Axes restored to original set *****
 -------------------------------------------------------------------
 Center     Atomic                   Forces (Hartrees/Bohr)
 Number     Number              X              Y              Z
 -------------------------------------------------------------------
      1        7           0.004199718   -0.010480907   -0.000797664
      2        7          -0.012709102   -0.006092055    0.000563363
      3        6           0.002118885    0.000245502    0.000211124
      4        6           0.000546715   -0.000325794    0.000135137
      5        6          -0.001823552    0.002595717    0.000048802
      6        1          -0.000458923    0.000105805    0.000067820
      7        1          -0.000005647    0.000388096    0.000002218
      8        6           0.035383547   -0.010989456   -0.000720567
      9        8          -0.006149297    0.006964905   -0.000511764
     10        8          -0.011408458   -0.012536614    0.002025050
     11        1           0.012922686    0.014487953    0.006199258
     12        1           0.000625023    0.000180359   -0.000116623
     13        8          -0.016692728   -0.001441519   -0.007433827
     14        1          -0.012164918    0.016995795   -0.002429261
     15        1           0.005616051   -0.000097786    0.002756934
 -------------------------------------------------------------------
 Cartesian Forces:  Max     0.035383547 RMS     0.008599056

 GradGradGradGradGradGradGradGradGradGradGradGradGradGradGradGradGradGrad
 Berny optimization.
 Using GEDIIS/GDIIS optimizer.
 FormGI is forming the generalized inverse of G from B-inverse, IUseBI=4.
 Internal  Forces:  Max     0.019168747 RMS     0.004350818
 Search for a local minimum.
 Step number   2 out of a maximum of   87
 All quantities printed in internal units (Hartrees-Bohrs-Radians)
 Mixed Optimization -- RFO/linear search
 Update second derivatives using D2CorX and points    1    2
 DE= -2.52D-02 DEPred=-2.52D-02 R= 1.00D+00
 TightC=F SS=  1.41D+00  RLast= 3.18D-01 DXNew= 5.0454D-01 9.5324D-01
 Trust test= 1.00D+00 RLast= 3.18D-01 DXMaxT set to 5.05D-01
 ITU=  1  0
 Use linear search instead of GDIIS.
     Eigenvalues ---    0.00881   0.01482   0.01526   0.01656   0.01824
     Eigenvalues ---    0.02013   0.02152   0.02284   0.02324   0.02345
     Eigenvalues ---    0.02440   0.04781   0.05385   0.07209   0.09037
     Eigenvalues ---    0.10037   0.13072   0.15999   0.16000   0.16007
     Eigenvalues ---    0.16824   0.21847   0.23389   0.23618   0.24645
     Eigenvalues ---    0.34064   0.35849   0.36095   0.36125   0.40278
     Eigenvalues ---    0.44700   0.49029   0.51388   0.53119   0.58506
     Eigenvalues ---    0.61192   0.63549   0.76387   0.90162
 RFO step:  Lambda=-6.23323996D-03 EMin= 8.80848319D-03
 Quartic linear search produced a step of  0.39252.
 Iteration  1 RMS(Cart)=  0.02998307 RMS(Int)=  0.00266993
 Iteration  2 RMS(Cart)=  0.00203362 RMS(Int)=  0.00082066
 Iteration  3 RMS(Cart)=  0.00002218 RMS(Int)=  0.00082045
 Iteration  4 RMS(Cart)=  0.00000001 RMS(Int)=  0.00082045
 Variable       Old X    -DE/DX   Delta X   Delta X   Delta X     New X
                                 (Linear)    (Quad)   (Total)
    R1        2.57173   0.00278   0.00585  -0.00148   0.00406   2.57579
    R2        2.49897  -0.00033  -0.00174   0.00047  -0.00118   2.49779
    R3        3.13228   0.00822   0.05848   0.07115   0.13033   3.26261
    R4        2.57478   0.00173   0.00352   0.00189   0.00528   2.58006
    R5        2.73426  -0.01091  -0.01283  -0.03337  -0.04714   2.68712
    R6        2.58918   0.00024  -0.00437   0.00433  -0.00006   2.58912
    R7        2.03998  -0.00016   0.00026  -0.00081  -0.00056   2.03943
    R8        2.67253   0.00007   0.00432  -0.00378   0.00067   2.67320
    R9        2.03912  -0.00002   0.00010  -0.00017  -0.00007   2.03904
   R10        2.04304   0.00034  -0.00006   0.00132   0.00126   2.04430
   R11        2.29854  -0.00752  -0.01118  -0.00180  -0.01298   2.28556
   R12        2.43031   0.01917   0.01973   0.01730   0.03630   2.46661
   R13        1.85719   0.01852   0.05562  -0.00684   0.04908   1.90628
   R14        1.85884   0.01212   0.05163  -0.01514   0.03780   1.89664
   R15        2.99211   0.00344   0.01279   0.13284   0.14667   3.13879
   R16        3.04080   0.00030   0.02208  -0.03824  -0.01737   3.02343
   R17        1.82211   0.00081  -0.00538   0.00656   0.00117   1.82328
    A1        1.83095   0.00063  -0.01147   0.01387   0.00216   1.83311
    A2        2.06169   0.00593   0.01785   0.03119   0.04931   2.11100
    A3        2.38991  -0.00656  -0.00635  -0.04449  -0.05100   2.33892
    A4        1.95156  -0.00181   0.00899  -0.01435  -0.00493   1.94663
    A5        2.16805   0.00237   0.00151   0.00714   0.00738   2.17543
    A6        2.16355  -0.00056  -0.01050   0.00717  -0.00249   2.16106
    A7        1.86359   0.00073  -0.00523   0.00806   0.00258   1.86618
    A8        2.11470  -0.00083   0.00382  -0.00870  -0.00477   2.10994
    A9        2.30489   0.00010   0.00141   0.00064   0.00218   2.30706
   A10        1.83058   0.00016   0.00037  -0.00124  -0.00089   1.82968
   A11        2.22033   0.00029  -0.00147   0.00460   0.00315   2.22347
   A12        2.23228  -0.00046   0.00110  -0.00336  -0.00225   2.23003
   A13        1.94810   0.00029   0.00734  -0.00634   0.00108   1.94917
   A14        2.08268   0.00043  -0.00400   0.00821   0.00417   2.08685
   A15        2.25241  -0.00073  -0.00334  -0.00187  -0.00525   2.24716
   A16        2.05218   0.00644   0.02000   0.01553   0.03639   2.08857
   A17        2.03842  -0.00024   0.00009   0.00630   0.00424   2.04265
   A18        2.19237  -0.00619  -0.02017  -0.02225  -0.04158   2.15080
   A19        2.00402  -0.00125   0.01525   0.02349   0.03779   2.04181
   A20        1.60615  -0.00331  -0.01867  -0.03867  -0.05695   1.54920
   A21        1.95162  -0.00600  -0.02001  -0.08004  -0.10119   1.85043
   A22        1.96764  -0.00093   0.00176  -0.00107   0.00078   1.96841
   A23        2.62715  -0.00302  -0.01265  -0.01014  -0.02124   2.60591
   A24        2.86228   0.00022   0.00356   0.04188   0.04780   2.91008
   A25        2.89000  -0.00697  -0.02177  -0.12187  -0.14150   2.74850
   A26        3.11630  -0.00090   0.00195   0.02601   0.02787   3.14417
    D1       -0.00067   0.00023   0.00025   0.00382   0.00386   0.00319
    D2       -3.13560   0.00033   0.00040   0.00916   0.00896  -3.12665
    D3        3.10914  -0.00003   0.00095   0.01686   0.01890   3.12804
    D4       -0.02580   0.00007   0.00110   0.02220   0.02400  -0.00179
    D5        0.00079  -0.00019  -0.00008  -0.00198  -0.00186  -0.00107
    D6       -3.14060  -0.00011   0.00000   0.00113   0.00121  -3.13939
    D7       -3.09975  -0.00028  -0.00169  -0.02146  -0.02295  -3.12270
    D8        0.04205  -0.00019  -0.00161  -0.01835  -0.01989   0.02216
    D9        0.10906   0.00042  -0.00209  -0.04126  -0.04522   0.06384
   D10       -3.07752   0.00037  -0.00092  -0.02049  -0.02271  -3.10023
   D11        1.91429  -0.00021  -0.00148  -0.00154  -0.00295   1.91134
   D12       -1.25850   0.00026  -0.00158  -0.00024  -0.00178  -1.26029
   D13        0.00029  -0.00017  -0.00032  -0.00419  -0.00438  -0.00409
   D14       -3.13986  -0.00007  -0.00030  -0.00141  -0.00175   3.14158
   D15        3.13524  -0.00026  -0.00042  -0.00951  -0.00938   3.12586
   D16       -0.00491  -0.00016  -0.00040  -0.00673  -0.00675  -0.01166
   D17        3.13428  -0.00014  -0.00566  -0.01622  -0.02157   3.11271
   D18        0.01369  -0.00019   0.00203   0.00449   0.00763   0.02132
   D19        0.00015  -0.00002  -0.00557  -0.01016  -0.01586  -0.01572
   D20       -3.12045  -0.00007   0.00212   0.01054   0.01333  -3.10711
   D21        0.00019   0.00005   0.00026   0.00272   0.00298   0.00317
   D22       -3.14057   0.00009   0.00011   0.00174   0.00178  -3.13879
   D23        3.14012  -0.00007   0.00024  -0.00050  -0.00007   3.14005
   D24       -0.00064  -0.00003   0.00009  -0.00148  -0.00128  -0.00192
   D25       -0.00063   0.00010  -0.00011  -0.00046  -0.00071  -0.00134
   D26        3.14073   0.00000  -0.00021  -0.00395  -0.00413   3.13661
   D27        3.14012   0.00005   0.00003   0.00054   0.00050   3.14063
   D28       -0.00170  -0.00004  -0.00006  -0.00295  -0.00291  -0.00461
   D29       -0.15793   0.00077  -0.00073  -0.00346  -0.00287  -0.16079
   D30        3.00656   0.00054   0.00761   0.01857   0.02639   3.03295
   D31        0.52228  -0.00362  -0.01768  -0.07448  -0.09222   0.43006
   D32        2.29032   0.00208   0.00529  -0.07113  -0.06729   2.22302
   D33       -0.48190   0.00359   0.02433   0.09975   0.12146  -0.36045
   D34        2.25429   0.00486   0.02438   0.11033   0.13363   2.38792
         Item               Value     Threshold  Converged?
 Maximum Force            0.019169     0.000450     NO 
 RMS     Force            0.004351     0.000300     NO 
 Maximum Displacement     0.176200     0.001800     NO 
 RMS     Displacement     0.029457     0.001200     NO 
 Predicted change in Energy=-3.245403D-03
 GradGradGradGradGradGradGradGradGradGradGradGradGradGradGradGradGradGrad

                          Input orientation:                          
 ---------------------------------------------------------------------
 Center     Atomic      Atomic             Coordinates (Angstroms)
 Number     Number       Type             X           Y           Z
 ---------------------------------------------------------------------
      1          7           0        0.412747    0.970395   -0.012223
      2          7           0        0.382988   -0.392138    0.010651
      3          6           0        1.641754   -0.920773    0.021478
      4          6           0        2.517097    0.133027   -0.000268
      5          6           0        1.696485    1.285115   -0.019616
      6          1           0        1.793925   -1.989055    0.039697
      7          1           0        3.595231    0.089435   -0.001823
      8          6           0       -0.804136   -1.174892    0.008240
      9          8           0       -0.725386   -2.381759   -0.000457
     10          8           0       -1.938799   -0.531705   -0.042617
     11          1           0       -1.047995    1.889962   -0.050003
     12          1           0        1.990846    2.325973   -0.035468
     13          8           0       -2.037143    2.058374   -0.073492
     14          1           0       -1.902294    0.470375    0.067379
     15          1           0       -2.253603    2.490487    0.761577
 ---------------------------------------------------------------------
                    Distance matrix (angstroms):
                    1          2          3          4          5
     1  N    0.000000
     2  N    1.363051   0.000000
     3  C    2.255684   1.365307   0.000000
     4  C    2.264866   2.197803   1.370106   0.000000
     5  C    1.321773   2.130579   2.206949   1.414598   0.000000
     6  H    3.266296   2.131133   1.079219   2.242276   3.276157
     7  H    3.302181   3.248164   2.199348   1.079016   2.243926
     8  C    2.466471   1.421961   2.459091   3.569497   3.507921
     9  O    3.540116   2.277544   2.781782   4.103393   4.394518
    10  O    2.790520   2.326589   3.602200   4.505405   4.064068
    11  H    1.726499   2.694323   3.891027   3.974818   2.810504
    12  H    2.080512   3.158396   3.265956   2.255481   1.081797
    13  O    2.681308   3.445160   4.734831   4.945041   3.813241
    14  H    2.369762   2.443289   3.807581   4.432764   3.690877
    15  H    3.165260   3.978069   5.230512   5.375650   4.203139
                    6          7          8          9         10
     6  H    0.000000
     7  H    2.750735   0.000000
     8  C    2.722824   4.577450   0.000000
     9  O    2.550050   4.977401   1.209465   0.000000
    10  O    4.007977   5.568929   1.305273   2.212883   0.000000
    11  H    4.809504   4.980338   3.075092   4.284172   2.580321
    12  H    4.320173   2.752687   4.479943   5.435244   4.858857
    13  O    5.574189   5.967034   3.461358   4.630424   2.592129
    14  H    4.439774   5.511141   1.978977   3.086159   1.008759
    15  H    6.080287   6.368414   4.012914   5.162841   3.143163
                   11         12         13         14         15
    11  H    0.000000
    12  H    3.069996   0.000000
    13  O    1.003658   4.037048   0.000000
    14  H    1.660974   4.313973   1.599929   0.000000
    15  H    1.572508   4.321770   0.964840   2.164759   0.000000
 Stoichiometry    C4H6N2O3
 Framework group  C1[X(C4H6N2O3)]
 Deg. of freedom    39
 Full point group                 C1      NOp   1
 Largest Abelian subgroup         C1      NOp   1
 Largest concise Abelian subgroup C1      NOp   1
                         Standard orientation:                         
 ---------------------------------------------------------------------
 Center     Atomic      Atomic             Coordinates (Angstroms)
 Number     Number       Type             X           Y           Z
 ---------------------------------------------------------------------
      1          7           0       -0.287381   -1.034276   -0.012375
      2          7           0       -0.416991    0.322367    0.012687
      3          6           0       -1.728891    0.700320    0.024117
      4          6           0       -2.475141   -0.448481    0.000515
      5          6           0       -1.525565   -1.496789   -0.020519
      6          1           0       -2.004812    1.743482    0.044018
      7          1           0       -3.550986   -0.531128   -0.001178
      8          6           0        0.670568    1.238438    0.011757
      9          8           0        0.451377    2.427855    0.004977
     10          8           0        1.872598    0.732283   -0.039911
     11          1           0        1.270780   -1.776849   -0.051345
     12          1           0       -1.696324   -2.564880   -0.038094
     13          8           0        2.272829   -1.828522   -0.074914
     14          1           0        1.953400   -0.267376    0.068474
     15          1           0        2.538282   -2.233737    0.759504
 ---------------------------------------------------------------------
 Rotational constants (GHZ):           2.0654863           1.5743535           0.8956092
 Standard basis: 6-31+G(d,p) (6D, 7F)
 There are   201 symmetry adapted cartesian basis functions of A   symmetry.
 There are   201 symmetry adapted basis functions of A   symmetry.
   201 basis functions,   330 primitive gaussians,   201 cartesian basis functions
    34 alpha electrons       34 beta electrons
       nuclear repulsion energy       455.4380495429 Hartrees.
 NAtoms=   15 NActive=   15 NUniq=   15 SFac= 1.00D+00 NAtFMM=   60 NAOKFM=F Big=F
 Integral buffers will be    131072 words long.
 Raffenetti 2 integral format.
 Two-electron integral symmetry is turned on.
 ------------------------------------------------------------------------------
 Polarizable Continuum Model (PCM)
 =================================
 Model                : PCM.
 Atomic radii         : SMD-Coulomb.
 Polarization charges : Total charges.
 Charge compensation  : None.
 Solution method      : On-the-fly selection.
 Cavity type          : VdW (van der Waals Surface) (Alpha=1.000).
 Cavity algorithm     : GePol (No added spheres)
                        Default sphere list used, NSphG=   15.
                        Lebedev-Laikov grids with approx.  5.0 points / Ang**2.
                        Smoothing algorithm: York/Karplus (Gamma=1.0000).
                        Polarization charges: spherical gaussians, with
                                              point-specific exponents (IZeta= 3).
                        Self-potential: point-specific (ISelfS= 7).
                        Self-field    : sphere-specific E.n sum rule (ISelfD= 2).
 1st derivatives      : Analytical E(r).r(x)/FMM algorithm (CHGder, D1EAlg=3).
                        Cavity 1st derivative terms included.
 Solvent              : Water, Eps=  78.355300 Eps(inf)=   1.777849
 ------------------------------------------------------------------------------
 Spheres list:
 ISph  on   Nord     Re0    Alpha      Xe            Ye            Ze
    1   N      1    1.8900  1.000     -0.287381     -1.034276     -0.012375
    2   N      2    1.8900  1.000     -0.416991      0.322367      0.012687
    3   C      3    1.8500  1.000     -1.728891      0.700320      0.024117
    4   C      4    1.8500  1.000     -2.475141     -0.448481      0.000515
    5   C      5    1.8500  1.000     -1.525565     -1.496789     -0.020519
    6   H      6    1.2000  1.000     -2.004812      1.743482      0.044018
    7   H      7    1.2000  1.000     -3.550986     -0.531128     -0.001178
    8   C      8    1.8500  1.000      0.670568      1.238438      0.011757
    9   O      9    1.5200  1.000      0.451377      2.427855      0.004977
   10   O     10    1.5200  1.000      1.872598      0.732283     -0.039911
   11   H     11    1.2000  1.000      1.270780     -1.776849     -0.051345
   12   H     12    1.2000  1.000     -1.696324     -2.564880     -0.038094
   13   O     13    1.5200  1.000      2.272829     -1.828522     -0.074914
   14   H     14    1.2000  1.000      1.953400     -0.267376      0.068474
   15   H     15    1.2000  1.000      2.538282     -2.233737      0.759504
 ------------------------------------------------------------------------------
 ------------------------------------------------------------------------------
 Atomic radii for non-electrostatic terms: SMD-CDS.
 ------------------------------------------------------------------------------
 Nuclear repulsion after PCM non-electrostatic terms =      455.4470094966 Hartrees.
 One-electron integrals computed using PRISM.
 NBasis=   201 RedAO= T EigKep=  3.48D-05  NBF=   201
 NBsUse=   201 1.00D-06 EigRej= -1.00D+00 NBFU=   201
 Initial guess from the checkpoint file:  "/scratch/gongke2021/bizuo-PC/Gau-22728.chk"
 B after Tr=    -0.000000    0.000000    0.000000
         Rot=    0.999861    0.000031    0.000133   -0.016661 Ang=   1.91 deg.
 ExpMin= 4.38D-02 ExpMax= 5.48D+03 ExpMxC= 8.25D+02 IAcc=2 IRadAn=         4 AccDes= 0.00D+00
 Harris functional with IExCor= 1009 and IRadAn=       4 diagonalized for initial guess.
 HarFok:  IExCor= 1009 AccDes= 0.00D+00 IRadAn=         4 IDoV= 1 UseB2=F ITyADJ=14
 ICtDFT=  3500011 ScaDFX=  1.000000  1.000000  1.000000  1.000000
 FoFCou: FMM=F IPFlag=           0 FMFlag=      100000 FMFlg1=           0
         NFxFlg=           0 DoJE=T BraDBF=F KetDBF=T FulRan=T
         wScrn=  0.000000 ICntrl=       500 IOpCl=  0 I1Cent=   200000004 NGrid=           0
         NMat0=    1 NMatS0=      1 NMatT0=    0 NMatD0=    1 NMtDS0=    0 NMtDT0=    0
 Petite list used in FoFCou.
 Requested convergence on RMS density matrix=1.00D-08 within 128 cycles.
 Requested convergence on MAX density matrix=1.00D-06.
 Requested convergence on             energy=1.00D-06.
 No special actions if energy rises.
 Inv3:  Mode=1 IEnd=     4212675.
 Iteration    1 A*A^-1 deviation from unit magnitude is 4.22D-15 for   1183.
 Iteration    1 A*A^-1 deviation from orthogonality  is 2.48D-15 for   1173    692.
 Iteration    1 A^-1*A deviation from unit magnitude is 4.44D-15 for   1183.
 Iteration    1 A^-1*A deviation from orthogonality  is 2.36D-15 for   1164    214.
 Error on total polarization charges =  0.04639
 SCF Done:  E(RM062X) =  -491.064549401     A.U. after   12 cycles
            NFock= 12  Conv=0.44D-08     -V/T= 2.0084
 SMD-CDS (non-electrostatic) energy       (kcal/mol) =       5.62
 (included in total energy above)
 D1PCM: PCM CHGder 1st derivatives, ID1Alg=3 FixD1E=F DoIter=F DoCFld=F I1PDM=0.
 Calling FoFJK, ICntrl=      2127 FMM=F ISym2X=0 I1Cent= 0 IOpClX= 0 NMat=1 NMatS=1 NMatT=0.
 ***** Axes restored to original set *****
 -------------------------------------------------------------------
 Center     Atomic                   Forces (Hartrees/Bohr)
 Number     Number              X              Y              Z
 -------------------------------------------------------------------
      1        7           0.001439551   -0.006378814   -0.000731248
      2        7          -0.000502117   -0.000545555    0.001857453
      3        6           0.003045649    0.000739209   -0.000249331
      4        6          -0.000139904   -0.002100086    0.000376504
      5        6          -0.002719326    0.001705991    0.000344676
      6        1          -0.000130434   -0.000249516    0.000003910
      7        1          -0.000009792    0.000056250    0.000026831
      8        6           0.003350027    0.005169743   -0.005477562
      9        8           0.001295842   -0.004974608    0.001633178
     10        8          -0.000412339    0.001925556    0.004819285
     11        1          -0.007880931    0.009213080   -0.000544202
     12        1          -0.000062547   -0.000147543   -0.000205153
     13        8           0.011036440   -0.005445091   -0.000427929
     14        1          -0.007469492    0.000055221   -0.003699811
     15        1          -0.000840626    0.000976162    0.002273399
 -------------------------------------------------------------------
 Cartesian Forces:  Max     0.011036440 RMS     0.003564362

 GradGradGradGradGradGradGradGradGradGradGradGradGradGradGradGradGradGrad
 Berny optimization.
 Using GEDIIS/GDIIS optimizer.
 FormGI is forming the generalized inverse of G from B-inverse, IUseBI=4.
 Internal  Forces:  Max     0.007613013 RMS     0.001668887
 Search for a local minimum.
 Step number   3 out of a maximum of   87
 All quantities printed in internal units (Hartrees-Bohrs-Radians)
 Mixed Optimization -- RFO/linear search
 Update second derivatives using D2CorX and points    2    3
 DE= -5.03D-03 DEPred=-3.25D-03 R= 1.55D+00
 TightC=F SS=  1.41D+00  RLast= 3.81D-01 DXNew= 8.4853D-01 1.1430D+00
 Trust test= 1.55D+00 RLast= 3.81D-01 DXMaxT set to 8.49D-01
 ITU=  1  1  0
 Use linear search instead of GDIIS.
     Eigenvalues ---    0.00870   0.01426   0.01498   0.01612   0.01745
     Eigenvalues ---    0.01873   0.02151   0.02274   0.02322   0.02344
     Eigenvalues ---    0.02444   0.03727   0.05484   0.06813   0.08948
     Eigenvalues ---    0.09490   0.13545   0.16000   0.16001   0.16013
     Eigenvalues ---    0.16540   0.21870   0.23402   0.23705   0.25315
     Eigenvalues ---    0.34220   0.35852   0.36099   0.36125   0.40387
     Eigenvalues ---    0.44702   0.49059   0.51272   0.53052   0.58518
     Eigenvalues ---    0.61006   0.66947   0.76420   0.91893
 RFO step:  Lambda=-1.76287281D-03 EMin= 8.69773343D-03
 Quartic linear search produced a step of  0.25265.
 Iteration  1 RMS(Cart)=  0.02374178 RMS(Int)=  0.00117427
 Iteration  2 RMS(Cart)=  0.00136711 RMS(Int)=  0.00067577
 Iteration  3 RMS(Cart)=  0.00000081 RMS(Int)=  0.00067577
 Variable       Old X    -DE/DX   Delta X   Delta X   Delta X     New X
                                 (Linear)    (Quad)   (Total)
    R1        2.57579  -0.00117   0.00103  -0.00316  -0.00195   2.57384
    R2        2.49779  -0.00165  -0.00030  -0.00378  -0.00406   2.49373
    R3        3.26261   0.00348   0.03293   0.04886   0.08200   3.34461
    R4        2.58006   0.00188   0.00133   0.00483   0.00614   2.58619
    R5        2.68712  -0.00143  -0.01191  -0.00459  -0.01649   2.67063
    R6        2.58912  -0.00150  -0.00001  -0.00410  -0.00411   2.58501
    R7        2.03943   0.00022  -0.00014   0.00083   0.00069   2.04012
    R8        2.67320   0.00137   0.00017   0.00414   0.00434   2.67754
    R9        2.03904  -0.00001  -0.00002  -0.00002  -0.00004   2.03901
   R10        2.04430  -0.00015   0.00032  -0.00060  -0.00028   2.04402
   R11        2.28556   0.00504  -0.00328   0.00636   0.00308   2.28863
   R12        2.46661   0.00473   0.00917   0.00800   0.01696   2.48357
   R13        1.90628  -0.00033   0.01240   0.00428   0.01649   1.92276
   R14        1.89664  -0.00761   0.00955  -0.01028   0.00044   1.89708
   R15        3.13879   0.00191   0.03706   0.06740   0.10401   3.24280
   R16        3.02343  -0.00216  -0.00439  -0.03038  -0.03514   2.98829
   R17        1.82328   0.00258   0.00030   0.00526   0.00555   1.82884
    A1        1.83311   0.00013   0.00055  -0.00194  -0.00149   1.83162
    A2        2.11100   0.00271   0.01246   0.02197   0.03439   2.14540
    A3        2.33892  -0.00283  -0.01288  -0.01976  -0.03275   2.30617
    A4        1.94663   0.00013  -0.00125   0.00265   0.00144   1.94807
    A5        2.17543  -0.00136   0.00187  -0.00622  -0.00448   2.17095
    A6        2.16106   0.00123  -0.00063   0.00353   0.00298   2.16404
    A7        1.86618  -0.00043   0.00065  -0.00223  -0.00160   1.86458
    A8        2.10994   0.00006  -0.00120   0.00042  -0.00078   2.10916
    A9        2.30706   0.00037   0.00055   0.00183   0.00238   2.30945
   A10        1.82968  -0.00013  -0.00023  -0.00050  -0.00070   1.82898
   A11        2.22347   0.00014   0.00079   0.00041   0.00119   2.22466
   A12        2.23003  -0.00001  -0.00057   0.00009  -0.00049   2.22954
   A13        1.94917   0.00031   0.00027   0.00203   0.00234   1.95152
   A14        2.08685  -0.00019   0.00105  -0.00165  -0.00062   2.08622
   A15        2.24716  -0.00012  -0.00133  -0.00039  -0.00173   2.24542
   A16        2.08857  -0.00141   0.00919  -0.00649   0.00060   2.08917
   A17        2.04265   0.00062   0.00107   0.00955   0.00767   2.05033
   A18        2.15080   0.00088  -0.01050   0.00298  -0.00951   2.14128
   A19        2.04181  -0.00079   0.00955   0.01109   0.01955   2.06136
   A20        1.54920  -0.00209  -0.01439  -0.02480  -0.03969   1.50951
   A21        1.85043   0.00069  -0.02557   0.00393  -0.02174   1.82869
   A22        1.96841   0.00023   0.00020  -0.00325  -0.00247   1.96594
   A23        2.60591   0.00125  -0.00537  -0.00357  -0.00718   2.59872
   A24        2.91008   0.00289   0.01208   0.02682   0.03999   2.95007
   A25        2.74850  -0.00286  -0.03575  -0.06690  -0.10234   2.64616
   A26        3.14417  -0.00262   0.00704  -0.03904  -0.03193   3.11224
    D1        0.00319   0.00012   0.00098  -0.00246  -0.00153   0.00166
    D2       -3.12665   0.00005   0.00226   0.00135   0.00312  -3.12353
    D3        3.12804   0.00023   0.00478   0.01171   0.01740  -3.13774
    D4       -0.00179   0.00016   0.00606   0.01551   0.02205   0.02025
    D5       -0.00107  -0.00016  -0.00047  -0.00124  -0.00167  -0.00273
    D6       -3.13939  -0.00007   0.00030   0.00110   0.00133  -3.13806
    D7       -3.12270  -0.00038  -0.00580  -0.01877  -0.02411   3.13638
    D8        0.02216  -0.00029  -0.00502  -0.01644  -0.02111   0.00105
    D9        0.06384  -0.00020  -0.01142   0.01383   0.00134   0.06518
   D10       -3.10023   0.00001  -0.00574   0.03327   0.02667  -3.07356
   D11        1.91134  -0.00132  -0.00075  -0.01061  -0.01219   1.89914
   D12       -1.26029   0.00063  -0.00045   0.03958   0.03937  -1.22092
[...]
 ! D29   D(2,8,10,14)           -5.5975         -DE/DX =    0.0                 !
 ! D30   D(9,8,10,14)          174.7424         -DE/DX =    0.0                 !
 ! D31   D(8,10,14,11)           1.463          -DE/DX =    0.0                 !
 ! D32   D(8,10,14,13)         179.381          -DE/DX =    0.0                 !
 ! D33   D(1,11,14,10)           6.7329         -DE/DX =    0.0                 !
 ! D34   D(15,13,14,10)         69.4232         -DE/DX =    0.0                 !
 --------------------------------------------------------------------------------
 GradGradGradGradGradGradGradGradGradGradGradGradGradGradGradGradGradGrad


 ----------------------------------------------------------------------

 Electric dipole moment (input orientation):
 (Debye = 10**-18 statcoulomb cm , SI units = C m)
                  (au)            (Debye)         (10**-30 SI)
   Tot        0.306988D+01      0.780285D+01      0.260275D+02
   x          0.149895D+01      0.380996D+01      0.127087D+02
   y          0.251122D+01      0.638288D+01      0.212910D+02
   z          0.933311D+00      0.237224D+01      0.791294D+01

 Dipole polarizability, Alpha (input orientation).
 (esu units = cm**3 , SI units = C**2 m**2 J**-1)
 Alpha(0;0):
               (au)            (10**-24 esu)      (10**-40 SI)
   iso        0.997105D+02      0.147756D+02      0.164400D+02
   aniso      0.613999D+02      0.909853D+01      0.101235D+02
   xx         0.117457D+03      0.174053D+02      0.193660D+02
   yx         0.754381D+01      0.111788D+01      0.124381D+01
   yy         0.121770D+03      0.180444D+02      0.200771D+02
   zx         0.389176D+00      0.576699D-01      0.641664D-01
   zy        -0.256731D+01     -0.380437D+00     -0.423293D+00
   zz         0.599051D+02      0.887702D+01      0.987702D+01

 ----------------------------------------------------------------------

 Dipole orientation:
     7          0.32932306          0.80054131          1.79821288
     7          0.94177099         -0.59476164         -0.26346138
     6          3.10505114         -1.97005137          0.09984049
     6          3.91585420         -1.44727164          2.49776292
     6          2.11348725          0.29066812          3.46433619
     1          3.84170247         -3.17541652         -1.37185414
     1          5.56279290         -2.19497495          3.44011192
     6         -0.49493614         -0.56823014         -2.51508141
     8          0.23751392         -1.76725172         -4.33583062
     8         -2.56047658          0.77517061         -2.52394682
     1         -3.30467761          2.69987526          2.55158274
     1          2.06521651          1.17854440          5.30490870
     8         -4.48460005          3.05537363          1.19243159
     1         -3.18346226          1.63053659         -0.88621250
     1         -6.07824750          2.30121737          1.68122939

 Electric dipole moment (dipole orientation):
 (Debye = 10**-18 statcoulomb cm , SI units = C m)
                  (au)            (Debye)         (10**-30 SI)
   Tot        0.306988D+01      0.780285D+01      0.260275D+02
   x          0.000000D+00      0.000000D+00      0.000000D+00
   y          0.000000D+00      0.000000D+00      0.000000D+00
   z          0.306988D+01      0.780285D+01      0.260275D+02

 Dipole polarizability, Alpha (dipole orientation).
 (esu units = cm**3 , SI units = C**2 m**2 J**-1)
 Alpha(0;0):
               (au)            (10**-24 esu)      (10**-40 SI)
   iso        0.997105D+02      0.147756D+02      0.164400D+02
   aniso      0.613999D+02      0.909853D+01      0.101235D+02
   xx         0.992852D+02      0.147125D+02      0.163699D+02
   yx        -0.201563D+02     -0.298686D+01     -0.332333D+01
   yy         0.799580D+02      0.118486D+02      0.131833D+02
   zx         0.126456D+02      0.187388D+01      0.208497D+01
   zy         0.170799D+02      0.253098D+01      0.281610D+01
   zz         0.119888D+03      0.177656D+02      0.197669D+02

 ----------------------------------------------------------------------
 1\1\GINC-NODE3\Freq\RM062X\6-31+G(d,p)\C4H6N2O3\GONGKE2021\05-Nov-2023
 \0\\#N Geom=AllCheck Guess=TCheck SCRF=Check GenChk RM062X/6-31+G(d,p)
  Freq\\Title Card Required\\0,1\N,0.4772833971,0.9312710301,-0.1423289
 032\N,0.4355758627,-0.4199238653,-0.028267191\C,1.6878252696,-0.967614
 6856,0.066553014\C,2.5732913853,0.0736554933,0.0165356231\C,1.76195040
 22,1.2319497923,-0.1145697147\H,1.8214824672,-2.0346186241,0.161219523
 7\H,3.6501546546,0.0219987749,0.0662611064\C,-0.7717818443,-1.15489278
 79,-0.0307722778\O,-0.7311601868,-2.3706792143,0.0060773269\O,-1.88501
 59575,-0.4778323932,-0.0800206662\H,-1.2073548156,2.3357374639,0.09566
 87172\H,2.07274116,2.265260363,-0.190324333\O,-2.1263919109,2.03022881
 6,0.0279938269\H,-1.8698886928,0.5524519312,-0.0258373365\H,-2.5669922
 71,2.3058324356,0.8448645843\\Version=ES64L-G16RevA.03\State=1-A\HF=-4
 91.0683374\RMSD=2.041e-09\RMSF=1.591e-05\ZeroPoint=0.1099524\Thermal=0
 .1190553\Dipole=1.4989529,2.5112201,0.9333113\DipoleDeriv=-0.6043469,0
 .5287679,-0.0498074,0.7850011,-0.0463227,-0.0013054,-0.0416696,-0.0127
 027,-0.294516,-1.8988428,-1.1184023,0.0212637,-0.9831381,-0.7675622,-0
 .0010058,0.0078028,0.0038664,-0.0734544,0.8993994,0.6196265,-0.0116627
 ,0.0787509,0.0124905,-0.0033153,0.0250962,0.0113419,-0.0611584,-0.1500
 135,-0.0932521,0.0152885,-0.3689293,-0.7127317,0.0188985,0.033004,0.03
 20611,-0.2869065,0.0305513,-0.6099133,0.0517153,-0.0617532,0.5423607,-
 0.051829,0.0060225,-0.068747,-0.0322248,0.1577825,-0.0026138,-0.003266
 8,0.0061805,0.153347,0.0092851,-0.0044726,0.0088454,0.2540302,0.049407
 ,0.0142484,-0.009015,0.0231079,0.1601633,0.0078742,-0.007992,0.0086097
 ,0.2427308,3.5263486,0.1802547,0.0206776,0.5069098,3.4509622,-0.071263
 6,0.0348998,-0.0990935,0.63524,-1.0097245,-0.0935544,0.0028797,-0.3688
 944,-2.2959635,0.040032,0.017487,0.0555924,-0.5903796,-1.7701383,0.692
 3735,-0.0190325,0.7990057,-1.8796909,-0.0119649,-0.0357195,-0.0024696,
 -0.5457852,0.6082514,-0.1224005,-0.0259069,-0.1394088,0.527985,-0.0408
 723,-0.0506735,-0.0383348,0.3926249,0.1299859,0.0064447,-0.0034108,-0.
 0278264,0.0231561,0.0134134,-0.0021586,0.0107737,0.1956417,-0.9637009,
 0.2547482,0.0453784,0.2705574,-1.3686387,0.0363867,0.0686664,0.0115229
 ,-0.6750658,0.5455475,-0.2219423,-0.0113579,-0.510102,1.7797032,0.0851
 753,-0.0303008,0.0884114,0.4494756,0.4494933,-0.034385,-0.0237432,-0.0
 094612,0.4207418,-0.0295088,-0.0199922,-0.0096773,0.3897476\Polar=117.
 4565501,7.543808,121.7696742,0.3891756,-2.5673143,59.9051269\Quadrupol
 e=3.3442083,-1.7113539,-1.6328544,-6.4531876,-4.0219344,3.5710778\PG=C
 01 [X(C4H6N2O3)]\NImag=0\\0.66356229,0.02377363,0.46771072,0.01730799,
 -0.02803104,0.10701540,-0.09321125,0.07590951,-0.00682947,0.78817811,-
 0.01946686,-0.26327965,0.01689463,0.04069401,0.68961101,0.00096306,0.0
 1907114,-0.06553938,0.02473953,-0.04155764,0.11101328,-0.05114486,0.02
 855987,-0.00531220,-0.24877083,0.09723380,-0.01566611,0.60348732,0.016
 98654,-0.07555795,0.00794268,0.08007869,-0.15097518,0.01027129,0.02810
 037,0.93414707,-0.00389215,0.00901619,0.01386939,-0.01464238,0.0107387
 6,-0.06048722,0.01718483,-0.06481794,0.14050787,-0.06461506,0.00255009
 ,-0.00364369,-0.08251092,-0.00140922,-0.00381379,-0.24612895,-0.166903
 77,0.00642284,0.91510809,0.07280484,0.01970166,0.00332086,-0.07800289,
 -0.00825366,-0.00138135,-0.13355456,-0.29829687,0.01337251,0.04617692,
 0.58975805,-0.00969639,0.00040023,0.02181375,0.00306200,0.00148563,0.0
 0962775,0.00367429,0.01239660,-0.06779596,0.02906301,-0.03732529,0.126
 05442,-0.42289268,-0.08362260,-0.00743691,-0.08815589,-0.07060335,0.00
 207313,0.06110078,0.02533126,-0.00033332,-0.17271264,0.06134552,-0.009
 52021,0.69574226,-0.05645192,-0.12278792,0.00208221,-0.04513312,-0.073
 17672,0.00510417,-0.03523847,-0.06306550,0.00493078,0.09986431,-0.2420
 2085,0.01881497,0.11593566,0.84796367,-0.00976637,0.00108466,-0.072295
 79,-0.00005176,0.00409675,0.01027541,0.00514218,0.00712410,0.00959915,
 -0.01273307,0.01719666,-0.06948439,0.01252168,-0.05448104,0.15341542,-
 0.00507949,0.00190667,-0.00053731,0.00129167,0.03100062,-0.00253532,-0
 .06161732,0.03002701,-0.00348605,0.01184663,-0.01625788,0.00163765,-0.
 00372152,-0.00429082,-0.00003657,0.05608463,-0.00063977,0.00189862,0.0
 0024724,0.00011517,-0.00463207,0.00028582,0.04060024,-0.36793101,0.029
 49256,0.00572497,-0.00461126,0.00101001,-0.00082296,-0.00161850,0.0005
 6881,-0.04271164,0.37805713,-0.00041188,0.00044357,0.00530310,0.000259
 90,0.00148981,-0.00147228,-0.00451353,0.02906606,-0.03567176,-0.000186
 25,0.00012971,0.00460965,-0.00030192,0.00040917,0.00567159,0.00482418,
 -0.03118369,0.02595503,-0.00065547,0.00105943,-0.00034206,-0.00066105,
 -0.00120699,-0.00024330,-0.00634518,0.00535202,-0.00068232,-0.37169859
 ,0.01419138,-0.01543577,-0.00407106,-0.00408888,0.00026040,0.00013424,
 -0.00008974,0.00015646,0.38326925,0.00515336,-0.00438226,0.00104525,-0
 .00420421,-0.00483984,0.00076103,-0.02187039,0.00870391,-0.00165963,0.
 01578903,-0.05646534,0.00287773,0.02150481,0.00842800,0.00003175,0.001
 13177,0.00019050,-0.00025118,-0.01556352,0.04682029,-0.00068330,0.0008
 7604,0.00576519,0.00010112,0.00094562,0.00672782,0.00153817,-0.0005061
 5,-0.00023502,-0.01558333,0.00284125,-0.03043780,-0.00185326,-0.001061
 22,-0.00210094,0.00005568,-0.00029773,-0.00335485,0.01630117,-0.002601
 35,0.02399391,-0.00235980,-0.03813357,0.00373603,-0.18633991,-0.034873
 26,-0.00325815,-0.06127529,-0.01306042,-0.00078027,0.00400696,0.028041
 94,-0.00235242,0.02715180,0.00442448,0.00052416,0.00035448,0.00015851,
 0.00000886,0.00042770,-0.00016070,-0.00011882,0.59638267,-0.03697558,-
 0.03430500,-0.00030002,-0.01166021,-0.12460735,0.00440811,-0.02315320,
 0.01967469,-0.00289848,0.01251592,0.01628772,-0.00065691,0.02032730,-0
 .01011796,0.00198584,0.00101028,-0.00213129,0.00002078,0.00071784,0.00
 143236,0.00003811,-0.08261658,0.96347034,0.00415778,-0.00009379,-0.015
 41830,-0.00542699,0.00357006,-0.05086770,-0.00066565,-0.00257004,-0.00
 875495,-0.00075033,0.00015282,0.00252002,-0.00070801,0.00136061,0.0029
 5759,0.00003561,-0.00003623,-0.00145964,-0.00010932,0.00008084,0.00225
 235,0.01303875,-0.02301401,0.21902616,-0.00532025,0.00437048,-0.001247
 66,-0.00393318,-0.05369763,0.00170895,0.00267175,-0.00084057,-0.000208
 06,0.00029893,-0.00309333,0.00024047,-0.00260772,-0.00411295,0.0003445
 9,-0.00072970,-0.00262910,0.00010165,-0.00014301,0.00000231,0.00000278
 ,-0.09257025,0.01408870,-0.00099038,0.11410164,-0.00543428,0.01311926,
 -0.00125404,-0.04881747,-0.07533041,0.00222022,0.01976802,-0.00217196,
 0.00062227,-0.00310871,-0.01060353,0.00082396,-0.01018008,-0.00228815,
 -0.00013676,-0.00074683,0.00049448,-0.00003381,-0.00030472,-0.00007437
 ,0.00000079,0.00860045,-0.64765674,0.01597758,-0.02693376,0.80798067,-
 0.00066439,-0.00002220,0.00626543,0.00207547,0.00185995,0.01721152,-0.
 00122665,-0.00003755,0.00033666,0.00020578,0.00058047,0.00028096,0.000
 66183,-0.00026145,-0.00039546,-0.00006227,-0.00012417,0.00015645,0.000
 01086,-0.00000473,-0.00016833,-0.00143854,0.01652301,-0.08405157,0.002
 62592,-0.02312519,0.03670637,0.00218301,0.01020262,-0.00083990,-0.0787
 6633,0.01394749,-0.00327106,0.01157447,-0.00934188,0.00120271,-0.00590
 972,-0.00637908,0.00019816,-0.00790720,0.00158057,-0.00054391,0.000106
 54,-0.00005545,0.00004256,-0.00035150,-0.00070898,0.00007756,-0.288015
 78,0.07270138,-0.01025782,-0.00758688,0.06557800,-0.00169511,0.4148914
 0,-0.00379654,-0.00353845,0.00018347,-0.00111636,0.01370121,0.00025856
 ,-0.00511522,-0.00068442,0.00021039,-0.00083273,0.00364665,-0.00040965
 ,0.00378286,0.00110329,-0.00001550,-0.00034236,0.00041187,-0.00008942,
 -0.00007954,0.00004627,-0.00005189,0.10446968,-0.15873618,0.00272429,0
 .07828568,-0.09780622,0.00571230,-0.13808726,0.56948572,0.00066540,0.0
 0040475,0.00016294,-0.00226815,0.00016737,0.01477632,0.00047318,0.0003
 8167,0.00481916,0.00004610,-0.00052116,-0.00012382,-0.00047275,0.00000
 141,0.00058736,0.00002727,-0.00000303,-0.00003980,0.00004958,-0.000085
 34,-0.00089998,-0.01062777,0.00199003,-0.06014388,-0.00146008,0.003913
 15,0.01831960,0.01648247,0.01086491,0.03601983,-0.00505618,-0.00077568
 ,0.00058942,0.00180330,0.00066252,-0.00041481,0.00091726,-0.00149994,0
 .00017699,0.00050203,-0.00102102,0.00019046,-0.00206805,-0.00060208,0.
 00004829,0.00023978,0.00001316,0.00009008,0.00009666,-0.00013787,0.000
 03325,0.00304804,0.00080032,0.00011124,-0.00079706,-0.00014297,-0.0000
 5004,-0.00209606,0.00413342,0.00036126,0.46814167,-0.00213627,0.000475
 38,0.00059278,-0.00052905,-0.00142627,0.00012569,-0.00096012,0.0010414
 0,-0.00017094,-0.00094571,0.00093233,-0.00027443,0.00132238,0.00133206
 ,-0.00009133,-0.00017257,-0.00000573,-0.00006484,-0.00011537,0.0001993
 5,-0.00005065,-0.00012699,-0.00261659,0.00006985,0.00013765,0.00116069
 ,-0.00002449,0.00166171,0.00068770,0.00004251,0.15399814,0.07037382,0.
 00112810,-0.00013272,-0.00177312,-0.00049161,0.00004247,-0.00036230,-0
 .00006243,0.00029254,0.00002143,-0.00017830,0.00010361,0.00011656,0.00
 008926,0.00022080,-0.00001862,-0.00005710,0.00001601,0.00008158,-0.000
 02062,0.00003422,0.00002819,-0.00068296,-0.00008694,0.00008346,0.00017
 731,-0.00006492,-0.00000597,0.00048356,-0.00116035,-0.00008528,0.01653
 148,0.02351792,0.04016816,-0.00540155,-0.03138723,0.00275523,-0.006532
 58,-0.00307266,-0.00037001,-0.00377449,0.00425463,-0.00068408,0.011661
 53,0.01517984,-0.00093187,-0.08051348,-0.07262391,0.00437040,0.0012017
 5,0.00033520,0.00000798,0.00000060,-0.00105300,0.00015866,0.00192110,-
 0.00062795,0.00006587,-0.00066320,-0.00100518,0.00003745,-0.00025102,0
 .00012202,-0.00000100,-0.00000020,-0.00005407,-0.00000043,0.08231299,-
 0.00093276,-0.00109521,-0.00053090,0.00017688,0.00275905,0.00054839,0.
 00234385,-0.00262772,0.00069915,-0.00891728,-0.00792401,0.00055965,-0.
 08189683,-0.34244398,0.02258330,-0.00068568,-0.00007210,0.00000787,0.0
 0014555,0.00023701,-0.00016446,0.00025837,0.00038217,0.00022645,-0.000
 14911,-0.00006297,-0.00009708,-0.00021592,-0.00000784,-0.00001712,-0.0
 0008680,-0.00004830,-0.00002190,0.09001573,0.35088698,0.00008792,-0.00
 176669,-0.00628318,-0.00075200,0.00021438,0.00900053,-0.00052783,0.000
 75850,0.00429168,0.00111983,0.00148493,0.00272514,0.00521496,0.0231002
 2,-0.03789542,0.00009642,0.00004638,0.00032839,0.00006062,-0.00021102,
 -0.00167424,0.00003347,0.00024605,0.00276822,0.00006295,-0.00009687,-0
 .00104173,-0.00001167,0.00002789,-0.00027896,-0.00008153,0.00010938,-0
 .00008860,-0.00541016,-0.02381560,0.02813159,-0.00844273,0.00367829,0.
 00226346,-0.00171914,-0.00090626,0.00026229,-0.00068687,0.00098345,-0.
 00015437,-0.00105344,0.00072492,-0.00028263,0.00091214,0.00176599,-0.0
 0005950,-0.00017101,-0.00002054,-0.00009002,-0.00011320,0.00019943,-0.
 00006654,0.00324133,-0.00384076,0.00008642,-0.00068567,0.00240348,-0.0
 0007698,0.00397783,0.01342364,-0.00000758,-0.45185497,-0.15530761,-0.0
 5389862,-0.00003326,-0.00008391,0.00013024,0.60770767,0.00533754,-0.00
 184993,-0.00116569,0.00378589,0.00053382,0.00019944,-0.00097440,0.0003
 7431,-0.00002331,0.00096153,0.00062800,0.00011168,0.00076394,-0.000825
 65,0.00006702,0.00001259,0.00004234,-0.00000265,0.00007973,-0.00003878
 ,0.00001729,-0.02347866,0.00649633,-0.00186132,0.00626234,-0.01012399,
 0.00092274,0.02320175,-0.06966884,-0.00498266,-0.14073093,-0.06743986,
 -0.03778261,0.00007953,0.00005528,-0.00005158,0.09321953,0.16181194,0.
 00228417,-0.00117562,0.00167768,0.00072037,0.00001593,0.00014532,-0.00
 001271,-0.00021032,-0.00000165,0.00031135,-0.00001098,-0.00010179,0.00
 003220,-0.00045111,0.00008768,0.00005040,-0.00001296,-0.00004218,0.000
 03217,-0.00004877,-0.00002138,-0.00173055,0.00070120,0.00088229,0.0005
 4872,-0.00102285,-0.00043455,0.00104514,-0.00784767,0.00632258,-0.0106
 2594,-0.02186549,-0.04025752,0.00001596,0.00004145,0.00006137,-0.15884
 257,0.15865778,0.42699562,-0.00048880,0.00130192,-0.00037901,-0.000589
 69,0.00166757,-0.00009544,0.00010731,0.00037804,-0.00010878,0.00129234
 ,-0.00024675,0.00015458,-0.00032718,-0.00123018,0.00002338,0.00008413,
 0.00001341,0.00000427,0.00011917,-0.00010851,0.00003594,-0.00481298,0.
 03635933,0.00144693,-0.00232661,0.00074427,-0.00042536,-0.04280950,-0.
 05217840,-0.00333815,0.00244561,-0.01058580,-0.00073988,0.00007671,0.0
 0004387,-0.00002192,-0.01678231,-0.00669925,0.00197895,0.06525396,0.00
 130665,0.00355951,-0.00104355,-0.01130075,-0.00010501,-0.00030304,0.00
 429353,-0.00268356,0.00048576,-0.00151965,-0.00281547,0.00020586,-0.00
 330354,-0.00037724,-0.00004791,0.00012821,-0.00009046,0.00005633,-0.00
 009965,-0.00025032,0.00001479,0.04727613,-0.02776056,0.00320492,-0.011
 93900,0.02371844,-0.00180233,-0.03420245,-0.25479921,-0.01329546,-0.00
 741437,-0.00793702,0.00203902,-0.00016169,-0.00003903,-0.00005030,-0.0
 1518962,0.03994797,0.00834210,0.02730911,0.22618056,-0.00057756,-0.000
 38554,-0.00058900,-0.00030020,0.00019475,-0.00008615,0.00001127,-0.000
 17604,-0.00047457,-0.00015498,0.00000862,0.00021544,-0.00003642,0.0000
 8156,-0.00041390,0.00000659,-0.00000747,-0.00006112,-0.00002119,0.0000
 1141,0.00012898,0.00266084,0.00174798,-0.00990045,-0.00165628,0.001618
 29,0.00685074,-0.00260366,-0.01410051,-0.01944707,-0.00115873,-0.00111
 251,0.00120057,-0.00000849,-0.00000983,-0.00005474,0.00160033,0.011713
 60,-0.01670282,0.00199039,0.00800370,0.03957251,-0.00107720,0.00060656
 ,-0.00008393,-0.00008231,0.00003022,-0.00007899,-0.00011509,0.00015458
 ,-0.00001559,-0.00008720,0.00009015,-0.00000133,0.00007043,0.00020131,
 -0.00004391,-0.00002482,0.00000852,0.00000766,-0.00000856,0.00002648,0
 .00000094,-0.00116008,0.00035323,-0.00003410,0.00029121,-0.00042022,0.
 00002207,0.00096074,-0.00266890,0.00007021,-0.01532183,0.01381367,0.03
 772224,-0.00000491,-0.00001598,-0.00000129,-0.13429636,0.03817886,0.16
 419233,-0.00124217,0.00481707,0.00024811,0.15209815,0.00047141,0.00033
 122,0.00001613,0.00000391,0.00002108,-0.00001183,-0.00003331,0.0000527
 8,0.00000192,0.00005431,0.00003658,-0.00002004,0.00011564,-0.00010453,
 0.00003364,-0.00000939,-0.00000252,0.00000228,0.00000245,-0.00000678,-
 0.00000044,-0.00077938,0.00018807,0.00020796,0.00024829,-0.00035519,-0
 .00009929,0.00011749,-0.00384154,0.00113898,-0.00719591,0.00327104,0.0
 1298284,-0.00000126,0.00000068,0.00000432,0.05894995,-0.05994295,-0.13
 511270,0.00323136,0.00345138,-0.00758803,-0.05517554,0.05690067,-0.000
 90239,0.00031099,0.00002589,-0.00019583,-0.00015846,0.00003706,-0.0000
 3680,0.00008461,-0.00002421,-0.00012516,0.00004733,-0.00001992,0.00006
 974,0.00014892,0.00001032,-0.00001919,-0.00000156,-0.00000414,-0.00001
 669,0.00001979,-0.00000390,0.00098737,-0.00070475,0.00010640,-0.000250
 87,0.00055819,-0.00003013,-0.00030904,0.00369318,0.00001101,-0.0058014
 1,-0.00080345,0.00089148,-0.00000550,-0.00000939,0.00000996,0.20913607
 ,-0.12581974,-0.37861065,-0.00052590,-0.00580990,-0.00023843,-0.202004
 41,0.12844423,0.37783927\\0.00000485,-0.00000303,-0.00000569,0.0000052
 9,0.00000876,0.00001558,0.00000887,0.00000812,0.00000377,0.00000028,0.
 00001663,0.00001913,-0.00000383,0.00001041,0.00001257,0.00001524,0.000
 01072,0.00001377,0.00000160,0.00001943,0.00002606,0.00000696,-0.000005
 82,-0.00001422,0.00001867,-0.00000930,-0.00000753,0.00000846,-0.000020
 33,-0.00003287,0.00002163,0.00000946,-0.00000795,-0.00001227,0.0000120
 2,0.00001504,-0.00004460,-0.00003953,-0.00001134,-0.00001260,-0.000011
 14,-0.00000551,-0.00001856,-0.00000639,-0.00002081\\\@


 WE LEARN WISDOM FROM FAILURE MUCH MORE THAN FROM SUCCESS.
 WE DISCOVER WHAT WILL DO BY FINDING OUT WHAT WILL NOT DO...
 AND HE WHO NEVER MADE A MISTAKE NEVER MADE A DISCOVERY
 Job cpu time:       0 days  0 hours 42 minutes 10.2 seconds.
 Elapsed time:       0 days  0 hours  2 minutes  7.4 seconds.
 File lengths (MBytes):  RWF=     96 Int=      0 D2E=      0 Chk=      9 Scr=      1
 Normal termination of Gaussian 16 at Sun Nov  5 10:41:33 2023.
