 Entering Gaussian System, Link 0=g16
 Input=bizuo-PC.gjf
 Output=bizuo-PC.log
 Initial command:
 /home/Tinker/g16/l1.exe "/home/Tinker/g16/scratch/Gau-1663778.inp" -scrdir="/home/Tinker/g16/scratch/"
 Entering Link 1 = /home/Tinker/g16/l1.exe PID=   1663779.
  
 Copyright (c) 1988-2019, Gaussian, Inc.  All Rights Reserved.
  
 This is part of the Gaussian(R) 16 program.  It is based on
 the Gaussian(R) 09 system (copyright 2009, Gaussian, Inc.),
 the Gaussian(R) 03 system (copyright 2003, Gaussian, Inc.),
 the Gaussian(R) 98 system (copyright 1998, Gaussian, Inc.),
 the Gaussian(R) 94 system (copyright 1995, Gaussian, Inc.),
 the Gaussian 92(TM) system (copyright 1992, Gaussian, Inc.),
 the Gaussian 90(TM) system (copyright 1990, Gaussian, Inc.),
 the Gaussian 88(TM) system (copyright 1988, Gaussian, Inc.),
 the Gaussian 86(TM) system (copyright 1986, Carnegie Mellon
 University), and the Gaussian 82(TM) system (copyright 1983,
 Carnegie Mellon University). Gaussian is a federally registered
 trademark of Gaussian, Inc.
  
 This software contains proprietary and confidential information,
 including trade secrets, belonging to Gaussian, Inc.
  
 This software is provided under written license and may be
 used, copied, transmitted, or stored only in accord with that
 written license.
  
 The following legend is applicable only to US Government
 contracts under FAR:
  
                    RESTRICTED RIGHTS LEGEND
  
 Use, reproduction and disclosure by the US Government is
 subject to restrictions as set forth in subparagraphs (a)
 and (c) of the Commercial Computer Software - Restricted
 Rights clause in FAR 52.227-19.
  
 Gaussian, Inc.
 340 Quinnipiac St., Bldg. 40, Wallingford CT 06492
  
  
 ---------------------------------------------------------------
 Warning -- This program may not be used in any manner that
 competes with the business of Gaussian, Inc. or will provide
 assistance to any competitor of Gaussian, Inc.  The licensee
 of this program is prohibited from giving any competitor of
 Gaussian, Inc. access to this program.  By using this program,
 the user acknowledges that Gaussian, Inc. is engaged in the
 business of creating and licensing software in the field of
 computational chemistry and represents and warrants to the
 licensee that it is not a competitor of Gaussian, Inc. and that
 it will not use this program in any manner prohibited above.
 ---------------------------------------------------------------
  

 Cite this work as:
 Gaussian 16, Revision C.01,
 M. J. Frisch, G. W. Trucks, H. B. Schlegel, G. E. Scuseria, 
 M. A. Robb, J. R. Cheeseman, G. Scalmani, V. Barone, 
 G. A. Petersson, H. Nakatsuji, X. Li, M. Caricato, A. V. Marenich, 
 J. Bloino, B. G. Janesko, R. Gomperts, B. Mennucci, H. P. Hratchian, 
 J. V. Ortiz, A. F. Izmaylov, J. L. Sonnenberg, D. Williams-Young, 
 F. Ding, F. Lipparini, F. Egidi, J. Goings, B. Peng, A. Petrone, 
 T. Henderson, D. Ranasinghe, V. G. Zakrzewski, J. Gao, N. Rega, 
 G. Zheng, W. Liang, M. Hada, M. Ehara, K. Toyota, R. Fukuda, 
 J. Hasegawa, M. Ishida, T. Nakajima, Y. Honda, O. Kitao, H. Nakai, 
 T. Vreven, K. Throssell, J. A. Montgomery, Jr., J. E. Peralta, 
 F. Ogliaro, M. J. Bearpark, J. J. Heyd, E. N. Brothers, K. N. Kudin, 
 V. N. Staroverov, T. A. Keith, R. Kobayashi, J. Normand, 
 K. Raghavachari, A. P. Rendell, J. C. Burant, S. S. Iyengar, 
 J. Tomasi, M. Cossi, J. M. Millam, M. Klene, C. Adamo, R. Cammi, 
 J. W. Ochterski, R. L. Martin, K. Morokuma, O. Farkas, 
 J. B. Foresman, and D. J. Fox, Gaussian, Inc., Wallingford CT, 2019.
 
 ******************************************
 Gaussian 16:  ES64L-G16RevC.01  3-Jul-2019
                27-Oct-2023 
 ******************************************
 %mem=10GB
 %nprocshared=24
 Will use up to   24 processors via shared memory.
 -----------------------------------------------------
 # opt freq 6-31+g(d,p) m062x scrf=(SMD,solvent=water)
 -----------------------------------------------------
 1/18=20,19=15,26=3,38=1/1,3;
 2/9=110,12=2,17=6,18=5,40=1/2;
 3/5=1,6=6,7=111,11=2,25=1,30=1,70=32201,71=1,72=1,74=-55/1,2,3;
 4//1;
 5/5=2,38=5,53=1/2;
 6/7=2,8=2,9=2,10=2,28=1/1;
 7//1,2,3,16;
 1/18=20,19=15,26=3/3(2);
 2/9=110/2;
 99//99;
 2/9=110/2;
 3/5=1,6=6,7=111,11=2,25=1,30=1,70=32205,71=1,72=1,74=-55/1,2,3;
 4/5=5,16=3,69=1/1;
 5/5=2,38=5,53=1/2;
 7//1,2,3,16;
 1/18=20,19=15,26=3/3(-5);
 2/9=110/2;
 6/7=2,8=2,9=2,10=2,19=2,28=1/1;
 99/9=1/99;
 -------------------
 Title Card Required
 -------------------
 Symbolic Z-matrix:
 Charge =  0 Multiplicity = 1
 N                    -0.59141   0.99088   0.00004 
 N                     0.0002   -0.21218   0.00005 
 C                    -0.9115   -1.20627  0. 
 C                    -2.15309  -0.596     0.00001 
 C                    -1.90126   0.79202   0.00007 
 H                    -0.61194  -2.24408  -0.00098 
 H                    -3.11671  -1.0817    0.00003 
 C                     1.45177  -0.06621   0.00003 
 O                     2.16709  -1.04887   0.00013 
 O                     1.71491   1.18683  -0.00014 
 H                     1.12698   1.93324   0.00983 
 H                    -2.59071   1.62372   0.00003 
 

 GradGradGradGradGradGradGradGradGradGradGradGradGradGradGradGradGradGrad
 Berny optimization.
 Initialization pass.
                           ----------------------------
                           !    Initial Parameters    !
                           ! (Angstroms and Degrees)  !
 --------------------------                            --------------------------
 ! Name  Definition              Value          Derivative Info.                !
 --------------------------------------------------------------------------------
 ! R1    R(1,2)                  1.3407         estimate D2E/DX2                !
 ! R2    R(1,5)                  1.3249         estimate D2E/DX2                !
 ! R3    R(2,3)                  1.3489         estimate D2E/DX2                !
 ! R4    R(2,8)                  1.4589         estimate D2E/DX2                !
 ! R5    R(3,4)                  1.3835         estimate D2E/DX2                !
 ! R6    R(3,6)                  1.0802         estimate D2E/DX2                !
 ! R7    R(4,5)                  1.4107         estimate D2E/DX2                !
 ! R8    R(4,7)                  1.0791         estimate D2E/DX2                !
 ! R9    R(5,12)                 1.0803         estimate D2E/DX2                !
 ! R10   R(8,9)                  1.2154         estimate D2E/DX2                !
 ! R11   R(8,10)                 1.2804         estimate D2E/DX2                !
 ! R12   R(10,11)                0.9502         estimate D2E/DX2                !
 ! A1    A(2,1,5)              107.5531         estimate D2E/DX2                !
 ! A2    A(1,2,3)              111.2894         estimate D2E/DX2                !
 ! A3    A(1,2,8)              110.4438         estimate D2E/DX2                !
 ! A4    A(3,2,8)              138.2668         estimate D2E/DX2                !
 ! A5    A(2,3,4)              106.3494         estimate D2E/DX2                !
 ! A6    A(2,3,6)              121.3747         estimate D2E/DX2                !
 ! A7    A(4,3,6)              132.276          estimate D2E/DX2                !
 ! A8    A(3,4,5)              105.8919         estimate D2E/DX2                !
 ! A9    A(3,4,7)              127.0751         estimate D2E/DX2                !
 ! A10   A(5,4,7)              127.033          estimate D2E/DX2                !
 ! A11   A(1,5,4)              108.9162         estimate D2E/DX2                !
 ! A12   A(1,5,12)             121.0248         estimate D2E/DX2                !
 ! A13   A(4,5,12)             130.059          estimate D2E/DX2                !
 ! A14   A(2,8,9)              120.3103         estimate D2E/DX2                !
 ! A15   A(2,8,10)             107.6018         estimate D2E/DX2                !
 ! A16   A(9,8,10)             132.0879         estimate D2E/DX2                !
 ! A17   A(8,10,11)            129.911          estimate D2E/DX2                !
 ! D1    D(5,1,2,3)              0.0042         estimate D2E/DX2                !
 ! D2    D(5,1,2,8)           -179.9996         estimate D2E/DX2                !
 ! D3    D(2,1,5,4)             -0.0041         estimate D2E/DX2                !
 ! D4    D(2,1,5,12)          -179.9979         estimate D2E/DX2                !
 ! D5    D(1,2,3,4)             -0.0026         estimate D2E/DX2                !
 ! D6    D(1,2,3,6)            179.939          estimate D2E/DX2                !
 ! D7    D(8,2,3,4)           -179.9971         estimate D2E/DX2                !
 ! D8    D(8,2,3,6)             -0.0556         estimate D2E/DX2                !
 ! D9    D(1,2,8,9)            179.9946         estimate D2E/DX2                !
 ! D10   D(1,2,8,10)            -0.0067         estimate D2E/DX2                !
 ! D11   D(3,2,8,9)             -0.0108         estimate D2E/DX2                !
 ! D12   D(3,2,8,10)           179.9879         estimate D2E/DX2                !
 ! D13   D(2,3,4,5)              0.0            estimate D2E/DX2                !
 ! D14   D(2,3,4,7)           -179.9965         estimate D2E/DX2                !
 ! D15   D(6,3,4,5)           -179.9326         estimate D2E/DX2                !
 ! D16   D(6,3,4,7)              0.071          estimate D2E/DX2                !
 ! D17   D(3,4,5,1)              0.0026         estimate D2E/DX2                !
 ! D18   D(3,4,5,12)           179.9956         estimate D2E/DX2                !
 ! D19   D(7,4,5,1)            179.999          estimate D2E/DX2                !
 ! D20   D(7,4,5,12)            -0.008          estimate D2E/DX2                !
 ! D21   D(2,8,10,11)            0.7915         estimate D2E/DX2                !
 ! D22   D(9,8,10,11)         -179.2101         estimate D2E/DX2                !
 --------------------------------------------------------------------------------
 Trust Radius=3.00D-01 FncErr=1.00D-07 GrdErr=1.00D-06 EigMax=2.50D+02 EigMin=1.00D-04
 Number of steps in this run=     61 maximum allowed number of steps=    100.
 GradGradGradGradGradGradGradGradGradGradGradGradGradGradGradGradGradGrad

                          Input orientation:                          
 ---------------------------------------------------------------------
 Center     Atomic      Atomic             Coordinates (Angstroms)
 Number     Number       Type             X           Y           Z
 ---------------------------------------------------------------------
      1          7           0       -0.591409    0.990884    0.000037
      2          7           0        0.000204   -0.212177    0.000050
      3          6           0       -0.911502   -1.206272   -0.000004
      4          6           0       -2.153088   -0.596002    0.000005
      5          6           0       -1.901258    0.792020    0.000067
      6          1           0       -0.611941   -2.244076   -0.000984
      7          1           0       -3.116707   -1.081699    0.000025
      8          6           0        1.451771   -0.066212    0.000027
      9          8           0        2.167087   -1.048867    0.000133
     10          8           0        1.714907    1.186829   -0.000142
     11          1           0        1.126979    1.933240    0.009827
     12          1           0       -2.590713    1.623722    0.000029
 ---------------------------------------------------------------------
                    Distance matrix (angstroms):
                    1          2          3          4          5
     1  N    0.000000
     2  N    1.340657   0.000000
     3  C    2.220350   1.348863   0.000000
     4  C    2.226443   2.187233   1.383461   0.000000
     5  C    1.324859   2.150342   2.229975   1.410682   0.000000
     6  H    3.235025   2.122107   1.080174   2.256387   3.298518
     7  H    3.266914   3.235924   2.208721   1.079103   2.233414
     8  C    2.300443   1.458887   2.623889   3.643581   3.461122
     9  O    3.430727   2.322807   3.082610   4.343846   4.465456
    10  O    2.314625   2.213012   3.553162   4.259093   3.637654
    11  H    1.959844   2.423331   3.743265   4.141980   3.236154
    12  H    2.097069   3.175433   3.290686   2.262452   1.080313
                    6          7          8          9         10
     6  H    0.000000
     7  H    2.761336   0.000000
     8  C    3.000333   4.679979   0.000000
     9  O    3.025148   5.283896   1.215437   0.000000
    10  O    4.145519   5.337669   1.280372   2.280965   0.000000
    11  H    4.524813   5.205653   2.025684   3.158304   0.950205
    12  H    4.344583   2.756079   4.381501   5.457050   4.327729
                   11         12
    11  H    0.000000
    12  H    3.730567   0.000000
 Stoichiometry    C4H4N2O2
 Framework group  C1[X(C4H4N2O2)]
 Deg. of freedom    30
 Full point group                 C1      NOp   1
 Largest Abelian subgroup         C1      NOp   1
 Largest concise Abelian subgroup C1      NOp   1
                         Standard orientation:                         
 ---------------------------------------------------------------------
 Center     Atomic      Atomic             Coordinates (Angstroms)
 Number     Number       Type             X           Y           Z
 ---------------------------------------------------------------------
      1          7           0        0.587822   -0.994045   -0.000438
      2          7           0        0.014061    0.217631   -0.000045
      3          6           0        0.940365    1.198138    0.000314
      4          6           0        2.172793    0.569578    0.000197
      5          6           0        1.900468   -0.814569   -0.000246
      6          1           0        0.656181    2.240258   -0.000323
      7          1           0        3.143487    1.040975    0.000456
      8          6           0       -1.439505    0.093144   -0.000223
      9          8           0       -2.140214    1.086267    0.000177
     10          8           0       -1.721138   -1.155870   -0.000850
     11          1           0       -1.144311   -1.910895    0.008899
     12          1           0        2.577551   -1.656373   -0.000526
 ---------------------------------------------------------------------
 Rotational constants (GHZ):           5.2378401           1.8103106           1.3453347
 Standard basis: 6-31+G(d,p) (6D, 7F)
 There are   172 symmetry adapted cartesian basis functions of A   symmetry.
 There are   172 symmetry adapted basis functions of A   symmetry.
   172 basis functions,   284 primitive gaussians,   172 cartesian basis functions
    29 alpha electrons       29 beta electrons
       nuclear repulsion energy       361.8278320906 Hartrees.
 NAtoms=   12 NActive=   12 NUniq=   12 SFac= 1.00D+00 NAtFMM=   60 NAOKFM=F Big=F
 Integral buffers will be    131072 words long.
 Raffenetti 2 integral format.
 Two-electron integral symmetry is turned on.
 ------------------------------------------------------------------------------
 Polarizable Continuum Model (PCM)
 =================================
 Model                : PCM.
 Atomic radii         : SMD-Coulomb.
 Polarization charges : Total charges.
 Charge compensation  : None.
 Solution method      : On-the-fly selection.
 Cavity type          : VdW (van der Waals Surface) (Alpha=1.000).
 Cavity algorithm     : GePol (No added spheres)
                        Default sphere list used, NSphG=   12.
                        Lebedev-Laikov grids with approx.  5.0 points / Ang**2.
                        Smoothing algorithm: York/Karplus (Gamma=1.0000).
                        Polarization charges: spherical gaussians, with
                                              point-specific exponents (IZeta= 3).
                        Self-potential: point-specific (ISelfS= 7).
                        Self-field    : sphere-specific E.n sum rule (ISelfD= 2).
 1st derivatives      : Analytical E(r).r(x)/FMM algorithm (CHGder, D1EAlg=3).
                        Cavity 1st derivative terms included.
 Solvent              : Water, Eps=  78.355300 Eps(inf)=   1.777849
 ------------------------------------------------------------------------------
 Spheres list:
 ISph  on   Nord     Re0    Alpha      Xe            Ye            Ze
    1   N      1    1.8900  1.000      0.587822     -0.994045     -0.000438
    2   N      2    1.8900  1.000      0.014061      0.217631     -0.000045
    3   C      3    1.8500  1.000      0.940365      1.198138      0.000314
    4   C      4    1.8500  1.000      2.172793      0.569578      0.000197
    5   C      5    1.8500  1.000      1.900468     -0.814569     -0.000246
    6   H      6    1.2000  1.000      0.656181      2.240258     -0.000323
    7   H      7    1.2000  1.000      3.143487      1.040975      0.000456
    8   C      8    1.8500  1.000     -1.439505      0.093144     -0.000223
    9   O      9    1.5200  1.000     -2.140214      1.086267      0.000177
   10   O     10    1.5200  1.000     -1.721138     -1.155870     -0.000850
   11   H     11    1.2000  1.000     -1.144311     -1.910895      0.008899
   12   H     12    1.2000  1.000      2.577551     -1.656373     -0.000526
 ------------------------------------------------------------------------------
 ------------------------------------------------------------------------------
 Atomic radii for non-electrostatic terms: SMD-CDS.
 ------------------------------------------------------------------------------
 Nuclear repulsion after PCM non-electrostatic terms =      361.8361494288 Hartrees.
 One-electron integrals computed using PRISM.
 NBasis=   172 RedAO= T EigKep=  4.30D-05  NBF=   172
 NBsUse=   172 1.00D-06 EigRej= -1.00D+00 NBFU=   172
 ExpMin= 4.38D-02 ExpMax= 5.48D+03 ExpMxC= 8.25D+02 IAcc=3 IRadAn=         5 AccDes= 0.00D+00
 Harris functional with IExCor= 1009 and IRadAn=       5 diagonalized for initial guess.
 HarFok:  IExCor= 1009 AccDes= 0.00D+00 IRadAn=         5 IDoV= 1 UseB2=F ITyADJ=14
 ICtDFT=  3500011 ScaDFX=  1.000000  1.000000  1.000000  1.000000
 FoFCou: FMM=F IPFlag=           0 FMFlag=      100000 FMFlg1=           0
         NFxFlg=           0 DoJE=T BraDBF=F KetDBF=T FulRan=T
         wScrn=  0.000000 ICntrl=       500 IOpCl=  0 I1Cent=   200000004 NGrid=           0
         NMat0=    1 NMatS0=      1 NMatT0=    0 NMatD0=    1 NMtDS0=    0 NMtDT0=    0
 Petite list used in FoFCou.
 Keep R1 ints in memory in canonical form, NReq=134731469.
 Requested convergence on RMS density matrix=1.00D-08 within 128 cycles.
 Requested convergence on MAX density matrix=1.00D-06.
 Requested convergence on             energy=1.00D-06.
 No special actions if energy rises.
 Inv3:  Mode=1 IEnd=     3263547.
 Iteration    1 A*A^-1 deviation from unit magnitude is 2.44D-15 for   1022.
 Iteration    1 A*A^-1 deviation from orthogonality  is 2.41D-15 for   1036    884.
 Iteration    1 A^-1*A deviation from unit magnitude is 2.44D-15 for   1023.
 Iteration    1 A^-1*A deviation from orthogonality  is 1.19D-15 for   1042    991.
 Error on total polarization charges =  0.04010
 SCF Done:  E(RM062X) =  -414.622102993     A.U. after   14 cycles
            NFock= 14  Conv=0.31D-08     -V/T= 2.0081
 SMD-CDS (non-electrostatic) energy       (kcal/mol) =       5.22
 (included in total energy above)

 **********************************************************************

            Population analysis using the SCF Density.

 **********************************************************************

 Orbital symmetries:
       Occupied  (A) (A) (A) (A) (A) (A) (A) (A) (A) (A) (A) (A)
                 (A) (A) (A) (A) (A) (A) (A) (A) (A) (A) (A) (A)
                 (A) (A) (A) (A) (A)
       Virtual   (A) (A) (A) (A) (A) (A) (A) (A) (A) (A) (A) (A)
                 (A) (A) (A) (A) (A) (A) (A) (A) (A) (A) (A) (A)
                 (A) (A) (A) (A) (A) (A) (A) (A) (A) (A) (A) (A)
                 (A) (A) (A) (A) (A) (A) (A) (A) (A) (A) (A) (A)
                 (A) (A) (A) (A) (A) (A) (A) (A) (A) (A) (A) (A)
                 (A) (A) (A) (A) (A) (A) (A) (A) (A) (A) (A) (A)
                 (A) (A) (A) (A) (A) (A) (A) (A) (A) (A) (A) (A)
                 (A) (A) (A) (A) (A) (A) (A) (A) (A) (A) (A) (A)
                 (A) (A) (A) (A) (A) (A) (A) (A) (A) (A) (A) (A)
                 (A) (A) (A) (A) (A) (A) (A) (A) (A) (A) (A) (A)
                 (A) (A) (A) (A) (A) (A) (A) (A) (A) (A) (A) (A)
                 (A) (A) (A) (A) (A) (A) (A) (A) (A) (A) (A)
 The electronic state is 1-A.
 Alpha  occ. eigenvalues --  -19.70904 -19.67098 -14.86294 -14.79727 -10.76043
 Alpha  occ. eigenvalues --  -10.60182 -10.58406 -10.55522  -1.28449  -1.18487
 Alpha  occ. eigenvalues --   -1.18132  -0.94502  -0.89849  -0.78939  -0.72829
 Alpha  occ. eigenvalues --   -0.69737  -0.63873  -0.59638  -0.58624  -0.54587
 Alpha  occ. eigenvalues --   -0.51555  -0.50817  -0.48595  -0.46856  -0.42605
 Alpha  occ. eigenvalues --   -0.40693  -0.37817  -0.33917  -0.31950
 Alpha virt. eigenvalues --   -0.00720   0.01693   0.03717   0.04151   0.04530
 Alpha virt. eigenvalues --    0.05723   0.06281   0.06974   0.07396   0.08986
 Alpha virt. eigenvalues --    0.09438   0.10109   0.10953   0.11580   0.12798
 Alpha virt. eigenvalues --    0.14630   0.15987   0.16310   0.16838   0.20345
 Alpha virt. eigenvalues --    0.20400   0.20853   0.22213   0.22954   0.23853
 Alpha virt. eigenvalues --    0.25122   0.26084   0.26574   0.26833   0.27255
 Alpha virt. eigenvalues --    0.28326   0.29087   0.29917   0.30974   0.31209
 Alpha virt. eigenvalues --    0.32648   0.33388   0.34194   0.35236   0.38754
 Alpha virt. eigenvalues --    0.40334   0.42213   0.46157   0.47237   0.49651
 Alpha virt. eigenvalues --    0.53580   0.64662   0.72022   0.73619   0.74405
 Alpha virt. eigenvalues --    0.74902   0.78220   0.78741   0.84331   0.85882
 Alpha virt. eigenvalues --    0.90317   0.92528   0.93503   0.96038   0.98184
 Alpha virt. eigenvalues --    0.98459   1.00536   1.00756   1.03471   1.12830
 Alpha virt. eigenvalues --    1.15436   1.16404   1.19351   1.21066   1.23014
 Alpha virt. eigenvalues --    1.24823   1.25341   1.28973   1.30985   1.32682
 Alpha virt. eigenvalues --    1.34813   1.35851   1.37656   1.38934   1.42441
 Alpha virt. eigenvalues --    1.42946   1.46190   1.46602   1.50945   1.54353
 Alpha virt. eigenvalues --    1.57729   1.59582   1.66153   1.67785   1.77825
 Alpha virt. eigenvalues --    1.78357   1.81748   1.90118   1.92200   1.94065
 Alpha virt. eigenvalues --    1.96870   1.99649   2.00658   2.04811   2.07399
 Alpha virt. eigenvalues --    2.10576   2.16935   2.17278   2.22106   2.28279
 Alpha virt. eigenvalues --    2.29233   2.33419   2.33742   2.36472   2.41129
 Alpha virt. eigenvalues --    2.42526   2.50267   2.52217   2.54129   2.56534
 Alpha virt. eigenvalues --    2.60043   2.62682   2.69767   2.72651   2.75087
 Alpha virt. eigenvalues --    2.78077   2.80313   2.83681   2.89845   2.90754
 Alpha virt. eigenvalues --    2.97727   3.08419   3.10966   3.20540   3.23772
 Alpha virt. eigenvalues --    3.27101   3.32813   3.50892   3.70132   3.80279
 Alpha virt. eigenvalues --    4.10979   4.24955   4.31051   4.42897   4.50104
 Alpha virt. eigenvalues --    4.61510   4.71499   4.81120
          Condensed to atoms (all electrons):
               1          2          3          4          5          6
     1  N    6.941785   0.227177  -0.144201  -0.044726   0.330790   0.009422
     2  N    0.227177   6.898646   0.410161  -0.219332   0.032900  -0.044408
     3  C   -0.144201   0.410161   5.255262   0.383032   0.025291   0.392418
     4  C   -0.044726  -0.219332   0.383032   5.305676   0.298789  -0.015856
     5  C    0.330790   0.032900   0.025291   0.298789   5.208488  -0.002249
     6  H    0.009422  -0.044408   0.392418  -0.015856  -0.002249   0.416832
     7  H    0.012203  -0.005283   0.008860   0.338526  -0.016440  -0.000289
     8  C   -0.000740   0.122208  -0.082870  -0.014295  -0.016927  -0.002454
     9  O    0.022570  -0.116550  -0.065127   0.029058  -0.001488   0.000347
    10  O   -0.082519  -0.121292   0.007162   0.004137   0.002846  -0.000606
    11  H    0.024450  -0.001197  -0.001681  -0.002917   0.006647   0.000002
    12  H   -0.059738   0.011025   0.012491  -0.041338   0.406641  -0.000064
               7          8          9         10         11         12
     1  N    0.012203  -0.000740   0.022570  -0.082519   0.024450  -0.059738
     2  N   -0.005283   0.122208  -0.116550  -0.121292  -0.001197   0.011025
     3  C    0.008860  -0.082870  -0.065127   0.007162  -0.001681   0.012491
     4  C    0.338526  -0.014295   0.029058   0.004137  -0.002917  -0.041338
     5  C   -0.016440  -0.016927  -0.001488   0.002846   0.006647   0.406641
     6  H   -0.000289  -0.002454   0.000347  -0.000606   0.000002  -0.000064
     7  H    0.447430  -0.001357  -0.000061   0.000111  -0.000002  -0.000264
     8  C   -0.001357   4.369560   0.510320   0.294862  -0.010417  -0.000041
     9  O   -0.000061   0.510320   8.257629  -0.085475   0.005007   0.000045
    10  O    0.000111   0.294862  -0.085475   8.240216   0.264634   0.000094
    11  H   -0.000002  -0.010417   0.005007   0.264634   0.224469  -0.000071
    12  H   -0.000264  -0.000041   0.000045   0.000094  -0.000071   0.450095
 Mulliken charges:
               1
     1  N   -0.236473
     2  N   -0.194056
     3  C   -0.200798
     4  C   -0.020755
     5  C   -0.275290
     6  H    0.246904
     7  H    0.216564
     8  C    0.832150
     9  O   -0.556275
    10  O   -0.524170
    11  H    0.491075
    12  H    0.221124
 Sum of Mulliken charges =  -0.00000
 Mulliken charges with hydrogens summed into heavy atoms:
               1
     1  N   -0.236473
     2  N   -0.194056
     3  C    0.046106
     4  C    0.195810
     5  C   -0.054166
     8  C    0.832150
     9  O   -0.556275
    10  O   -0.033095
 Electronic spatial extent (au):  <R**2>=            827.4709
 Charge=             -0.0000 electrons
 Dipole moment (field-independent basis, Debye):
    X=              4.6514    Y=             -1.6164    Z=              0.0224  Tot=              4.9243
 Quadrupole moment (field-independent basis, Debye-Ang):
   XX=            -49.2491   YY=            -40.2785   ZZ=            -47.2903
   XY=              5.2544   XZ=             -0.0263   YZ=             -0.0495
 Traceless Quadrupole moment (field-independent basis, Debye-Ang):
   XX=             -3.6432   YY=              5.3275   ZZ=             -1.6843
   XY=              5.2544   XZ=             -0.0263   YZ=             -0.0495
 Octapole moment (field-independent basis, Debye-Ang**2):
  XXX=             38.6825  YYY=             -9.9816  ZZZ=              0.0105  XYY=              5.6670
  XXY=            -13.2266  XXZ=              0.0297  XZZ=             -9.3448  YZZ=             -1.4683
  YYZ=              0.0965  XYZ=              0.0593
 Hexadecapole moment (field-independent basis, Debye-Ang**3):
 XXXX=           -735.9036 YYYY=           -235.8160 ZZZZ=            -48.6030 XXXY=             14.6286
 XXXZ=             -0.0336 YYYX=             21.3145 YYYZ=             -0.2148 ZZZX=             -0.0172
 ZZZY=             -0.0316 XXYY=           -164.6194 XXZZ=           -139.2428 YYZZ=            -59.6625
 XXYZ=             -0.0634 YYXZ=             -0.1231 ZZXY=             -0.7334
 N-N= 3.618361494288D+02 E-N=-1.691475672902D+03  KE= 4.112813277814D+02
 D1PCM: PCM CHGder 1st derivatives, ID1Alg=3 FixD1E=F DoIter=F DoCFld=F I1PDM=0.
 Calling FoFJK, ICntrl=      2127 FMM=F ISym2X=0 I1Cent= 0 IOpClX= 0 NMat=1 NMatS=1 NMatT=0.
 ***** Axes restored to original set *****
 -------------------------------------------------------------------
 Center     Atomic                   Forces (Hartrees/Bohr)
 Number     Number              X              Y              Z
 -------------------------------------------------------------------
      1        7          -0.030562426    0.021804978    0.000030043
      2        7           0.013423665    0.025817900   -0.000012988
      3        6          -0.008172089   -0.011835060   -0.000045400
      4        6          -0.002203518   -0.010681214    0.000003791
      5        6           0.015565730   -0.010689899    0.000011834
      6        1          -0.000704956   -0.000397868    0.000040356
      7        1           0.000183632   -0.002153024   -0.000012065
      8        6          -0.055588559   -0.032895264    0.000349886
      9        8           0.001881909    0.025236409   -0.000150448
     10        8           0.099427999   -0.004428737   -0.000369912
     11        1          -0.033353120    0.000098091    0.000147277
     12        1           0.000101734    0.000123688    0.000007626
 -------------------------------------------------------------------
 Cartesian Forces:  Max     0.099427999 RMS     0.022836912

 GradGradGradGradGradGradGradGradGradGradGradGradGradGradGradGradGradGrad
 Berny optimization.
 FormGI is forming the generalized inverse of G from B-inverse, IUseBI=4.
 Internal  Forces:  Max     0.061939916 RMS     0.018360598
 Search for a local minimum.
 Step number   1 out of a maximum of   61
 All quantities printed in internal units (Hartrees-Bohrs-Radians)
 Mixed Optimization -- RFO/linear search
 Second derivative matrix not updated -- first step.
 ITU=  0
     Eigenvalues ---    0.00913   0.01761   0.01866   0.02083   0.02176
     Eigenvalues ---    0.02236   0.02324   0.02336   0.03274   0.16000
     Eigenvalues ---    0.16000   0.16000   0.16000   0.22205   0.24074
     Eigenvalues ---    0.25000   0.25000   0.25000   0.35957   0.35973
     Eigenvalues ---    0.36103   0.37104   0.40941   0.45485   0.51829
     Eigenvalues ---    0.54909   0.57635   0.58883   0.72953   0.97434
 RFO step:  Lambda=-5.59980906D-02 EMin= 9.12812566D-03
 Linear search not attempted -- first point.
 Maximum step size (   0.300) exceeded in Quadratic search.
    -- Step size scaled by   0.684
 Iteration  1 RMS(Cart)=  0.12852018 RMS(Int)=  0.00735513
 Iteration  2 RMS(Cart)=  0.01017003 RMS(Int)=  0.00003795
 Iteration  3 RMS(Cart)=  0.00005526 RMS(Int)=  0.00002162
 Iteration  4 RMS(Cart)=  0.00000000 RMS(Int)=  0.00002162
 Variable       Old X    -DE/DX   Delta X   Delta X   Delta X     New X
                                 (Linear)    (Quad)   (Total)
    R1        2.53347   0.01975   0.00000   0.02331   0.02333   2.55680
    R2        2.50362  -0.00215   0.00000  -0.00241  -0.00236   2.50126
    R3        2.54898   0.01638   0.00000   0.01979   0.01976   2.56874
    R4        2.75690   0.01111   0.00000   0.01780   0.01780   2.77469
    R5        2.61436  -0.01321   0.00000  -0.01779  -0.01783   2.59654
    R6        2.04123   0.00018   0.00000   0.00030   0.00030   2.04154
    R7        2.66580   0.00427   0.00000   0.00354   0.00356   2.66936
    R8        2.03921   0.00080   0.00000   0.00132   0.00132   2.04053
    R9        2.04150   0.00003   0.00000   0.00005   0.00005   2.04155
   R10        2.29684  -0.01929   0.00000  -0.01281  -0.01281   2.28404
   R11        2.41955   0.00933   0.00000   0.00813   0.00813   2.42768
   R12        1.79563   0.02071   0.00000   0.02240   0.02240   1.81803
    A1        1.87716  -0.01177   0.00000  -0.02324  -0.02317   1.85399
    A2        1.94237  -0.00438   0.00000  -0.00510  -0.00513   1.93724
    A3        1.92761   0.05743   0.00000   0.12604   0.12605   2.05366
    A4        2.41321  -0.05305   0.00000  -0.12094  -0.12093   2.29228
    A5        1.85615   0.00599   0.00000   0.01480   0.01473   1.87088
    A6        2.11839  -0.00219   0.00000  -0.00483  -0.00480   2.11359
    A7        2.30865  -0.00381   0.00000  -0.00997  -0.00993   2.29872
    A8        1.84816  -0.00404   0.00000  -0.01670  -0.01673   1.83143
    A9        2.21788  -0.00001   0.00000   0.00190   0.00192   2.21980
   A10        2.21714   0.00406   0.00000   0.01480   0.01481   2.23196
   A11        1.90095   0.01420   0.00000   0.03025   0.03029   1.93124
   A12        2.11228  -0.00727   0.00000  -0.01566  -0.01568   2.09660
   A13        2.26996  -0.00693   0.00000  -0.01459  -0.01461   2.25534
   A14        2.09981  -0.01217   0.00000  -0.02722  -0.02722   2.07260
   A15        1.87801   0.06194   0.00000   0.13847   0.13847   2.01647
   A16        2.30537  -0.04977   0.00000  -0.11125  -0.11125   2.19412
   A17        2.26738  -0.04693   0.00000  -0.14864  -0.14864   2.11874
    D1        0.00007  -0.00000   0.00000  -0.00003  -0.00003   0.00004
    D2       -3.14159   0.00001   0.00000   0.00015   0.00017  -3.14141
    D3       -0.00007  -0.00000   0.00000  -0.00002  -0.00002  -0.00009
    D4       -3.14156  -0.00001   0.00000  -0.00005  -0.00005   3.14158
    D5       -0.00004   0.00001   0.00000   0.00007   0.00007   0.00003
    D6        3.14053   0.00002   0.00000   0.00022   0.00021   3.14074
    D7       -3.14154  -0.00002   0.00000  -0.00020  -0.00019   3.14146
    D8       -0.00097  -0.00001   0.00000  -0.00006  -0.00004  -0.00101
    D9        3.14150  -0.00001   0.00000  -0.00008  -0.00007   3.14143
   D10       -0.00012  -0.00006   0.00000  -0.00056  -0.00057  -0.00069
   D11       -0.00019   0.00002   0.00000   0.00019   0.00019   0.00001
   D12        3.14138  -0.00003   0.00000  -0.00030  -0.00030   3.14108
   D13       -0.00000  -0.00001   0.00000  -0.00008  -0.00008  -0.00008
   D14       -3.14153   0.00000   0.00000   0.00001   0.00001  -3.14152
   D15       -3.14042  -0.00003   0.00000  -0.00025  -0.00025  -3.14067
   D16        0.00124  -0.00002   0.00000  -0.00016  -0.00016   0.00108
   D17        0.00004   0.00001   0.00000   0.00007   0.00006   0.00011
   D18        3.14152   0.00001   0.00000   0.00010   0.00010  -3.14157
   D19        3.14158  -0.00000   0.00000  -0.00003  -0.00003   3.14155
   D20       -0.00014  -0.00000   0.00000   0.00000   0.00000  -0.00014
   D21        0.01381  -0.00018   0.00000  -0.00134  -0.00136   0.01246
   D22       -3.12781  -0.00024   0.00000  -0.00190  -0.00189  -3.12970
         Item               Value     Threshold  Converged?
 Maximum Force            0.061940     0.000450     NO 
 RMS     Force            0.018361     0.000300     NO 
 Maximum Displacement     0.491414     0.001800     NO 
 RMS     Displacement     0.129432     0.001200     NO 
 Predicted change in Energy=-2.772442D-02
 GradGradGradGradGradGradGradGradGradGradGradGradGradGradGradGradGradGrad

                          Input orientation:                          
 ---------------------------------------------------------------------
 Center     Atomic      Atomic             Coordinates (Angstroms)
 Number     Number       Type             X           Y           Z
 ---------------------------------------------------------------------
      1          7           0       -0.710371    1.076163    0.000124
      2          7           0       -0.040779   -0.099532    0.000065
      3          6           0       -0.902506   -1.150805   -0.000108
      4          6           0       -2.175149   -0.632794   -0.000202
      5          6           0       -1.997746    0.768586    0.000038
      6          1           0       -0.540837   -2.168802   -0.000964
      7          1           0       -3.103936   -1.183545   -0.000280
      8          6           0        1.426635   -0.048375    0.000373
      9          8           0        2.044571   -1.087130    0.000503
     10          8           0        1.939695    1.129400   -0.000123
     11          1           0        1.387024    1.916813    0.009571
     12          1           0       -2.742272    1.551412    0.000073
 ---------------------------------------------------------------------
                    Distance matrix (angstroms):
                    1          2          3          4          5
     1  N    0.000000
     2  N    1.353001   0.000000
     3  C    2.235241   1.359319   0.000000
     4  C    2.250802   2.199978   1.374028   0.000000
     5  C    1.323608   2.140876   2.209889   1.412564   0.000000
     6  H    3.249390   2.128834   1.080334   2.242832   3.278845
     7  H    3.291721   3.249310   2.201673   1.079801   2.243762
     8  C    2.414825   1.468305   2.576869   3.648889   3.520484
     9  O    3.502790   2.307387   2.947766   4.244109   4.447922
    10  O    2.650600   2.330783   3.643823   4.476301   3.953938
    11  H    2.259612   2.470700   3.827835   4.380601   3.574239
    12  H    2.086740   3.166020   3.269054   2.256632   1.080341
                    6          7          8          9         10
     6  H    0.000000
     7  H    2.745944   0.000000
     8  C    2.892604   4.670619   0.000000
     9  O    2.802562   5.149410   1.208660   0.000000
    10  O    4.126884   5.548686   1.284673   2.219010   0.000000
    11  H    4.517632   5.457200   1.965608   3.075081   0.962059
    12  H    4.322766   2.758765   4.465322   5.465874   4.700948
                   11         12
    11  H    0.000000
    12  H    4.145443   0.000000
 Stoichiometry    C4H4N2O2
 Framework group  C1[X(C4H4N2O2)]
 Deg. of freedom    30
 Full point group                 C1      NOp   1
 Largest Abelian subgroup         C1      NOp   1
 Largest concise Abelian subgroup C1      NOp   1
                         Standard orientation:                         
 ---------------------------------------------------------------------
 Center     Atomic      Atomic             Coordinates (Angstroms)
 Number     Number       Type             X           Y           Z
 ---------------------------------------------------------------------
      1          7           0        0.678999   -1.077699   -0.000331
      2          7           0        0.038867    0.114292   -0.000123
      3          6           0        0.926485    1.143799    0.000180
      4          6           0        2.185844    0.594283    0.000128
      5          6           0        1.973628   -0.802249   -0.000109
      6          1           0        0.590257    2.170479   -0.000408
      7          1           0        3.128047    1.121753    0.000377
      8          6           0       -1.429366    0.099662   -0.000070
      9          8           0       -2.021265    1.153471    0.000292
     10          8           0       -1.971571   -1.064982   -0.001026
     11          1           0       -1.438665   -1.865906    0.008507
     12          1           0        2.698446   -1.603358   -0.000203
 ---------------------------------------------------------------------
 Rotational constants (GHZ):           5.2800444           1.7285959           1.3022593
 Standard basis: 6-31+G(d,p) (6D, 7F)
 There are   172 symmetry adapted cartesian basis functions of A   symmetry.
 There are   172 symmetry adapted basis functions of A   symmetry.
   172 basis functions,   284 primitive gaussians,   172 cartesian basis functions
    29 alpha electrons       29 beta electrons
       nuclear repulsion energy       358.2097164024 Hartrees.
 NAtoms=   12 NActive=   12 NUniq=   12 SFac= 1.00D+00 NAtFMM=   60 NAOKFM=F Big=F
 Integral buffers will be    131072 words long.
 Raffenetti 2 integral format.
 Two-electron integral symmetry is turned on.
 ------------------------------------------------------------------------------
 Polarizable Continuum Model (PCM)
 =================================
 Model                : PCM.
 Atomic radii         : SMD-Coulomb.
 Polarization charges : Total charges.
 Charge compensation  : None.
 Solution method      : On-the-fly selection.
 Cavity type          : VdW (van der Waals Surface) (Alpha=1.000).
 Cavity algorithm     : GePol (No added spheres)
                        Default sphere list used, NSphG=   12.
                        Lebedev-Laikov grids with approx.  5.0 points / Ang**2.
                        Smoothing algorithm: York/Karplus (Gamma=1.0000).
                        Polarization charges: spherical gaussians, with
                                              point-specific exponents (IZeta= 3).
                        Self-potential: point-specific (ISelfS= 7).
                        Self-field    : sphere-specific E.n sum rule (ISelfD= 2).
 1st derivatives      : Analytical E(r).r(x)/FMM algorithm (CHGder, D1EAlg=3).
                        Cavity 1st derivative terms included.
 Solvent              : Water, Eps=  78.355300 Eps(inf)=   1.777849
 ------------------------------------------------------------------------------
 Spheres list:
 ISph  on   Nord     Re0    Alpha      Xe            Ye            Ze
    1   N      1    1.8900  1.000      0.678999     -1.077699     -0.000331
    2   N      2    1.8900  1.000      0.038867      0.114292     -0.000123
    3   C      3    1.8500  1.000      0.926485      1.143799      0.000180
    4   C      4    1.8500  1.000      2.185844      0.594283      0.000128
    5   C      5    1.8500  1.000      1.973628     -0.802249     -0.000109
    6   H      6    1.2000  1.000      0.590257      2.170479     -0.000408
    7   H      7    1.2000  1.000      3.128047      1.121753      0.000377
    8   C      8    1.8500  1.000     -1.429366      0.099662     -0.000070
    9   O      9    1.5200  1.000     -2.021265      1.153471      0.000292
   10   O     10    1.5200  1.000     -1.971571     -1.064982     -0.001026
   11   H     11    1.2000  1.000     -1.438665     -1.865906      0.008507
   12   H     12    1.2000  1.000      2.698446     -1.603358     -0.000203
 ------------------------------------------------------------------------------
 ------------------------------------------------------------------------------
 Atomic radii for non-electrostatic terms: SMD-CDS.
 ------------------------------------------------------------------------------
 Nuclear repulsion after PCM non-electrostatic terms =      358.2176566420 Hartrees.
 One-electron integrals computed using PRISM.
 NBasis=   172 RedAO= T EigKep=  4.09D-05  NBF=   172
 NBsUse=   172 1.00D-06 EigRej= -1.00D+00 NBFU=   172
 Initial guess from the checkpoint file:  "/home/Tinker/g16/scratch/Gau-1663779.chk"
 B after Tr=    -0.000000   -0.000000    0.000000
         Rot=    0.999929    0.000002    0.000006    0.011911 Ang=   1.36 deg.
 ExpMin= 4.38D-02 ExpMax= 5.48D+03 ExpMxC= 8.25D+02 IAcc=3 IRadAn=         5 AccDes= 0.00D+00
 Harris functional with IExCor= 1009 and IRadAn=       5 diagonalized for initial guess.
 HarFok:  IExCor= 1009 AccDes= 0.00D+00 IRadAn=         5 IDoV= 1 UseB2=F ITyADJ=14
 ICtDFT=  3500011 ScaDFX=  1.000000  1.000000  1.000000  1.000000
 FoFCou: FMM=F IPFlag=           0 FMFlag=      100000 FMFlg1=           0
         NFxFlg=           0 DoJE=T BraDBF=F KetDBF=T FulRan=T
         wScrn=  0.000000 ICntrl=       500 IOpCl=  0 I1Cent=   200000004 NGrid=           0
         NMat0=    1 NMatS0=      1 NMatT0=    0 NMatD0=    1 NMtDS0=    0 NMtDT0=    0
 Petite list used in FoFCou.
 Keep R1 ints in memory in canonical form, NReq=134731469.
 Requested convergence on RMS density matrix=1.00D-08 within 128 cycles.
 Requested convergence on MAX density matrix=1.00D-06.
 Requested convergence on             energy=1.00D-06.
 No special actions if energy rises.
 Inv3:  Mode=1 IEnd=     3345408.
 Iteration    1 A*A^-1 deviation from unit magnitude is 5.66D-15 for   1055.
 Iteration    1 A*A^-1 deviation from orthogonality  is 4.49D-15 for   1050    889.
 Iteration    1 A^-1*A deviation from unit magnitude is 5.66D-15 for   1055.
 Iteration    1 A^-1*A deviation from orthogonality  is 9.28D-16 for    108    104.
 Error on total polarization charges =  0.03953
 SCF Done:  E(RM062X) =  -414.642506760     A.U. after   12 cycles
            NFock= 12  Conv=0.75D-08     -V/T= 2.0085
 SMD-CDS (non-electrostatic) energy       (kcal/mol) =       4.98
 (included in total energy above)
 D1PCM: PCM CHGder 1st derivatives, ID1Alg=3 FixD1E=F DoIter=F DoCFld=F I1PDM=0.
 Calling FoFJK, ICntrl=      2127 FMM=F ISym2X=0 I1Cent= 0 IOpClX= 0 NMat=1 NMatS=1 NMatT=0.
 ***** Axes restored to original set *****
 -------------------------------------------------------------------
 Center     Atomic                   Forces (Hartrees/Bohr)
 Number     Number              X              Y              Z
 -------------------------------------------------------------------
      1        7          -0.000142630    0.011495932    0.000065102
      2        7           0.018436740    0.022747732    0.000017468
      3        6           0.001931795   -0.012481318   -0.000038237
      4        6           0.001064110   -0.004791981    0.000014549
      5        6           0.009682416   -0.001098499    0.000004450
      6        1           0.000026744   -0.000147133    0.000034974
      7        1           0.000655221   -0.000541639   -0.000011681
      8        6          -0.049862791   -0.031207394    0.000153121
      9        8           0.003947719    0.005000860   -0.000118224
     10        8           0.033296336    0.009028856   -0.000045829
     11        1          -0.018806289    0.001604861   -0.000077649
     12        1          -0.000229372    0.000389723    0.000001957
 -------------------------------------------------------------------
 Cartesian Forces:  Max     0.049862791 RMS     0.013245890

 GradGradGradGradGradGradGradGradGradGradGradGradGradGradGradGradGradGrad
 Berny optimization.
 Using GEDIIS/GDIIS optimizer.
 FormGI is forming the generalized inverse of G from B-inverse, IUseBI=4.
 Internal  Forces:  Max     0.031952063 RMS     0.007698875
 Search for a local minimum.
 Step number   2 out of a maximum of   61
 All quantities printed in internal units (Hartrees-Bohrs-Radians)
 Mixed Optimization -- RFO/linear search
 Update second derivatives using D2CorX and points    1    2
 DE= -2.04D-02 DEPred=-2.77D-02 R= 7.36D-01
 TightC=F SS=  1.41D+00  RLast= 3.00D-01 DXNew= 5.0454D-01 9.0003D-01
 Trust test= 7.36D-01 RLast= 3.00D-01 DXMaxT set to 5.05D-01
 ITU=  1  0
 Use linear search instead of GDIIS.
     Eigenvalues ---    0.00913   0.01736   0.01782   0.02083   0.02176
     Eigenvalues ---    0.02235   0.02326   0.02336   0.03274   0.13949
     Eigenvalues ---    0.16000   0.16000   0.16001   0.22157   0.22508
     Eigenvalues ---    0.24596   0.25000   0.31402   0.35957   0.35973
     Eigenvalues ---    0.36103   0.40733   0.45307   0.50502   0.53815
     Eigenvalues ---    0.57119   0.58437   0.59360   0.73824   0.97860
 RFO step:  Lambda=-1.54607486D-02 EMin= 9.12811519D-03
 Quartic linear search produced a step of  0.31558.
 Iteration  1 RMS(Cart)=  0.06514051 RMS(Int)=  0.00720117
 Iteration  2 RMS(Cart)=  0.01288633 RMS(Int)=  0.00029677
 Iteration  3 RMS(Cart)=  0.00026976 RMS(Int)=  0.00005442
 Iteration  4 RMS(Cart)=  0.00000008 RMS(Int)=  0.00005442
 Variable       Old X    -DE/DX   Delta X   Delta X   Delta X     New X
                                 (Linear)    (Quad)   (Total)
    R1        2.55680   0.00144   0.00736   0.00175   0.00918   2.56598
    R2        2.50126  -0.00284  -0.00075  -0.00628  -0.00694   2.49432
    R3        2.56874   0.00346   0.00624   0.00725   0.01345   2.58219
    R4        2.77469  -0.03195   0.00562  -0.10825  -0.10264   2.67206
    R5        2.59654  -0.00558  -0.00563  -0.01302  -0.01875   2.57779
    R6        2.04154   0.00015   0.00010   0.00050   0.00060   2.04213
    R7        2.66936   0.00710   0.00112   0.01920   0.02031   2.68967
    R8        2.04053  -0.00029   0.00042  -0.00106  -0.00064   2.03989
    R9        2.04155   0.00044   0.00002   0.00152   0.00153   2.04308
   R10        2.28404  -0.00228  -0.00404  -0.00184  -0.00588   2.27815
   R11        2.42768   0.01554   0.00256   0.02640   0.02897   2.45665
   R12        1.81803   0.01212   0.00707   0.02491   0.03198   1.85001
    A1        1.85399  -0.01078  -0.00731  -0.05309  -0.06019   1.79379
    A2        1.93724   0.01043  -0.00162   0.05312   0.05152   1.98877
    A3        2.05366   0.00583   0.03978   0.02402   0.06379   2.11745
    A4        2.29228  -0.01626  -0.03816  -0.07715  -0.11532   2.17697
    A5        1.87088  -0.00582   0.00465  -0.03009  -0.02559   1.84529
    A6        2.11359   0.00293  -0.00151   0.01523   0.01379   2.12738
    A7        2.29872   0.00289  -0.00313   0.01486   0.01180   2.31052
    A8        1.83143  -0.00017  -0.00528  -0.00160  -0.00702   1.82442
    A9        2.21980  -0.00074   0.00060  -0.00539  -0.00471   2.21508
   A10        2.23196   0.00091   0.00467   0.00699   0.01173   2.24369
   A11        1.93124   0.00634   0.00956   0.03166   0.04127   1.97251
   A12        2.09660  -0.00327  -0.00495  -0.01657  -0.02154   2.07506
   A13        2.25534  -0.00307  -0.00461  -0.01509  -0.01973   2.23561
   A14        2.07260   0.01053  -0.00859   0.05224   0.04365   2.11624
   A15        2.01647  -0.00746   0.04370  -0.04033   0.00337   2.01984
   A16        2.19412  -0.00307  -0.03511  -0.01191  -0.04702   2.14709
   A17        2.11874  -0.02631  -0.04691  -0.19693  -0.24383   1.87491
    D1        0.00004  -0.00001  -0.00001  -0.00053  -0.00055  -0.00051
    D2       -3.14141   0.00000   0.00005   0.00020   0.00034  -3.14107
    D3       -0.00009   0.00001  -0.00001   0.00018   0.00018   0.00009
    D4        3.14158   0.00001  -0.00002   0.00016   0.00014  -3.14146
    D5        0.00003   0.00002   0.00002   0.00067   0.00071   0.00074
    D6        3.14074   0.00002   0.00007   0.00078   0.00086  -3.14159
    D7        3.14146  -0.00000  -0.00006  -0.00018  -0.00020   3.14126
    D8       -0.00101   0.00000  -0.00001  -0.00007  -0.00005  -0.00107
    D9        3.14143  -0.00002  -0.00002  -0.00158  -0.00158   3.13984
   D10       -0.00069  -0.00007  -0.00018  -0.00348  -0.00368  -0.00437
   D11        0.00001  -0.00001   0.00006  -0.00069  -0.00061  -0.00060
   D12        3.14108  -0.00005  -0.00010  -0.00259  -0.00271   3.13837
   D13       -0.00008  -0.00001  -0.00003  -0.00053  -0.00053  -0.00061
   D14       -3.14152  -0.00001   0.00000  -0.00038  -0.00038   3.14129
   D15       -3.14067  -0.00001  -0.00008  -0.00064  -0.00069  -3.14136
   D16        0.00108  -0.00001  -0.00005  -0.00050  -0.00054   0.00054
   D17        0.00011   0.00001   0.00002   0.00022   0.00023   0.00034
   D18       -3.14157   0.00001   0.00003   0.00025   0.00028  -3.14130
   D19        3.14155   0.00000  -0.00001   0.00008   0.00007  -3.14157
   D20       -0.00014   0.00000   0.00000   0.00010   0.00011  -0.00002
   D21        0.01246  -0.00020  -0.00043  -0.00559  -0.00606   0.00639
   D22       -3.12970  -0.00024  -0.00060  -0.00762  -0.00817  -3.13787
         Item               Value     Threshold  Converged?
 Maximum Force            0.031952     0.000450     NO 
 RMS     Force            0.007699     0.000300     NO 
 Maximum Displacement     0.259551     0.001800     NO 
 RMS     Displacement     0.073268     0.001200     NO 
 Predicted change in Energy=-6.928436D-03
 GradGradGradGradGradGradGradGradGradGradGradGradGradGradGradGradGradGrad

                          Input orientation:                          
 ---------------------------------------------------------------------
 Center     Atomic      Atomic             Coordinates (Angstroms)
 Number     Number       Type             X           Y           Z
 ---------------------------------------------------------------------
      1          7           0       -0.713631    1.162217    0.002571
      2          7           0       -0.045297   -0.019776    0.000958
      3          6           0       -0.859369   -1.117241   -0.000646
      4          6           0       -2.134233   -0.631953   -0.001033
      5          6           0       -1.977839    0.782739    0.001282
      6          1           0       -0.462553   -2.122397   -0.002026
      7          1           0       -3.047209   -1.207896   -0.002461
      8          6           0        1.367969   -0.065083    0.002249
      9          8           0        1.960064   -1.115210    0.002617
     10          8           0        1.969547    1.087350   -0.000074
     11          1           0        1.277182    1.779464    0.003623
     12          1           0       -2.750300    1.539175    0.002010
 ---------------------------------------------------------------------
                    Distance matrix (angstroms):
                    1          2          3          4          5
     1  N    0.000000
     2  N    1.357859   0.000000
     3  C    2.284114   1.366435   0.000000
     4  C    2.288486   2.176791   1.364105   0.000000
     5  C    1.319935   2.092546   2.204746   1.423312   0.000000
     6  H    3.294200   2.143625   1.080650   2.239629   3.276571
     7  H    3.326116   3.228485   2.189718   1.079462   2.259689
     8  C    2.416469   1.413993   2.463347   3.547784   3.451556
     9  O    3.512167   2.285050   2.819436   4.122720   4.371418
    10  O    2.684223   2.298983   3.586500   4.449383   3.959122
    11  H    2.084306   2.232985   3.599412   4.177644   3.404208
    12  H    2.071260   3.122078   3.260701   2.256843   1.081153
                    6          7          8          9         10
     6  H    0.000000
     7  H    2.741671   0.000000
     8  C    2.753792   4.560684   0.000000
     9  O    2.623647   5.008133   1.205547   0.000000
    10  O    4.027107   5.516883   1.300001   2.202582   0.000000
    11  H    4.272146   5.255922   1.846781   2.974133   0.978982
    12  H    4.317512   2.763073   4.419704   5.406782   4.741424
                   11         12
    11  H    0.000000
    12  H    4.034644   0.000000
 Stoichiometry    C4H4N2O2
 Framework group  C1[X(C4H4N2O2)]
 Deg. of freedom    30
 Full point group                 C1      NOp   1
 Largest Abelian subgroup         C1      NOp   1
 Largest concise Abelian subgroup C1      NOp   1
                         Standard orientation:                         
 ---------------------------------------------------------------------
 Center     Atomic      Atomic             Coordinates (Angstroms)
 Number     Number       Type             X           Y           Z
 ---------------------------------------------------------------------
      1          7           0        0.698405   -1.139388    0.001306
      2          7           0        0.037319    0.046675    0.000006
      3          6           0        0.858094    1.139136   -0.000792
      4          6           0        2.129964    0.646054   -0.000946
      5          6           0        1.964913   -0.767655    0.000651
      6          1           0        0.467439    2.146704   -0.001844
      7          1           0        3.046448    1.216399   -0.001776
      8          6           0       -1.375643    0.100631    0.000808
      9          8           0       -1.961300    1.154362    0.001454
     10          8           0       -1.984263   -1.048097   -0.002271
     11          1           0       -1.296149   -1.744438    0.001351
     12          1           0        2.732729   -1.528805    0.001303
 ---------------------------------------------------------------------
 Rotational constants (GHZ):           5.2433995           1.7902727           1.3345979
 Standard basis: 6-31+G(d,p) (6D, 7F)
 There are   172 symmetry adapted cartesian basis functions of A   symmetry.
 There are   172 symmetry adapted basis functions of A   symmetry.
   172 basis functions,   284 primitive gaussians,   172 cartesian basis functions
    29 alpha electrons       29 beta electrons
       nuclear repulsion energy       360.8990386414 Hartrees.
 NAtoms=   12 NActive=   12 NUniq=   12 SFac= 1.00D+00 NAtFMM=   60 NAOKFM=F Big=F
 Integral buffers will be    131072 words long.
 Raffenetti 2 integral format.
 Two-electron integral symmetry is turned on.
 ------------------------------------------------------------------------------
 Polarizable Continuum Model (PCM)
 =================================
 Model                : PCM.
 Atomic radii         : SMD-Coulomb.
 Polarization charges : Total charges.
 Charge compensation  : None.
 Solution method      : On-the-fly selection.
 Cavity type          : VdW (van der Waals Surface) (Alpha=1.000).
 Cavity algorithm     : GePol (No added spheres)
                        Default sphere list used, NSphG=   12.
                        Lebedev-Laikov grids with approx.  5.0 points / Ang**2.
                        Smoothing algorithm: York/Karplus (Gamma=1.0000).
                        Polarization charges: spherical gaussians, with
                                              point-specific exponents (IZeta= 3).
                        Self-potential: point-specific (ISelfS= 7).
                        Self-field    : sphere-specific E.n sum rule (ISelfD= 2).
 1st derivatives      : Analytical E(r).r(x)/FMM algorithm (CHGder, D1EAlg=3).
                        Cavity 1st derivative terms included.
 Solvent              : Water, Eps=  78.355300 Eps(inf)=   1.777849
 ------------------------------------------------------------------------------
 Spheres list:
 ISph  on   Nord     Re0    Alpha      Xe            Ye            Ze
    1   N      1    1.8900  1.000      0.698405     -1.139388      0.001306
    2   N      2    1.8900  1.000      0.037319      0.046675      0.000006
    3   C      3    1.8500  1.000      0.858094      1.139136     -0.000792
    4   C      4    1.8500  1.000      2.129964      0.646054     -0.000946
    5   C      5    1.8500  1.000      1.964913     -0.767655      0.000651
    6   H      6    1.2000  1.000      0.467439      2.146704     -0.001844
    7   H      7    1.2000  1.000      3.046448      1.216399     -0.001776
    8   C      8    1.8500  1.000     -1.375643      0.100631      0.000808
    9   O      9    1.5200  1.000     -1.961300      1.154362      0.001454
   10   O     10    1.5200  1.000     -1.984263     -1.048097     -0.002271
   11   H     11    1.2000  1.000     -1.296149     -1.744438      0.001351
   12   H     12    1.2000  1.000      2.732729     -1.528805      0.001303
 ------------------------------------------------------------------------------
 ------------------------------------------------------------------------------
 Atomic radii for non-electrostatic terms: SMD-CDS.
 ------------------------------------------------------------------------------
 Nuclear repulsion after PCM non-electrostatic terms =      360.9066497246 Hartrees.
 One-electron integrals computed using PRISM.
 NBasis=   172 RedAO= T EigKep=  3.76D-05  NBF=   172
 NBsUse=   172 1.00D-06 EigRej= -1.00D+00 NBFU=   172
 Initial guess from the checkpoint file:  "/home/Tinker/g16/scratch/Gau-1663779.chk"
 B after Tr=     0.000000    0.000000   -0.000000
         Rot=    0.999993    0.000003   -0.000013   -0.003696 Ang=   0.42 deg.
 ExpMin= 4.38D-02 ExpMax= 5.48D+03 ExpMxC= 8.25D+02 IAcc=3 IRadAn=         5 AccDes= 0.00D+00
 Harris functional with IExCor= 1009 and IRadAn=       5 diagonalized for initial guess.
 HarFok:  IExCor= 1009 AccDes= 0.00D+00 IRadAn=         5 IDoV= 1 UseB2=F ITyADJ=14
 ICtDFT=  3500011 ScaDFX=  1.000000  1.000000  1.000000  1.000000
 FoFCou: FMM=F IPFlag=           0 FMFlag=      100000 FMFlg1=           0
         NFxFlg=           0 DoJE=T BraDBF=F KetDBF=T FulRan=T
         wScrn=  0.000000 ICntrl=       500 IOpCl=  0 I1Cent=   200000004 NGrid=           0
         NMat0=    1 NMatS0=      1 NMatT0=    0 NMatD0=    1 NMtDS0=    0 NMtDT0=    0
 Petite list used in FoFCou.
 Keep R1 ints in memory in canonical form, NReq=134731469.
 Requested convergence on RMS density matrix=1.00D-08 within 128 cycles.
 Requested convergence on MAX density matrix=1.00D-06.
 Requested convergence on             energy=1.00D-06.
 No special actions if energy rises.
 Inv3:  Mode=1 IEnd=     3232332.
 Iteration    1 A*A^-1 deviation from unit magnitude is 2.89D-15 for   1013.
 Iteration    1 A*A^-1 deviation from orthogonality  is 1.70D-15 for    371     33.
 Iteration    1 A^-1*A deviation from unit magnitude is 2.89D-15 for   1013.
 Iteration    1 A^-1*A deviation from orthogonality  is 1.30D-14 for    738    709.
 Error on total polarization charges =  0.03890
 SCF Done:  E(RM062X) =  -414.647807120     A.U. after   13 cycles
            NFock= 13  Conv=0.31D-08     -V/T= 2.0082
 SMD-CDS (non-electrostatic) energy       (kcal/mol) =       4.78
 (included in total energy above)
 D1PCM: PCM CHGder 1st derivatives, ID1Alg=3 FixD1E=F DoIter=F DoCFld=F I1PDM=0.
 Calling FoFJK, ICntrl=      2127 FMM=F ISym2X=0 I1Cent= 0 IOpClX= 0 NMat=1 NMatS=1 NMatT=0.
 ***** Axes restored to original set *****
 -------------------------------------------------------------------
 Center     Atomic                   Forces (Hartrees/Bohr)
 Number     Number              X              Y              Z
 -------------------------------------------------------------------
      1        7          -0.003057327   -0.012910543   -0.000059639
      2        7           0.019698870   -0.002607555    0.000173917
      3        6          -0.000847161    0.001557740   -0.000051493
      4        6          -0.001501224    0.003342682    0.000053598
      5        6          -0.008247618    0.006702737   -0.000004825
      6        1           0.001000772    0.001322294    0.000011460
      7        1          -0.000608862    0.001568232   -0.000000684
      8        6          -0.010902353   -0.015916997   -0.000328016
      9        8           0.003720317   -0.010389780    0.000081560
     10        8          -0.003409601    0.020368787    0.000209643
     11        1           0.005343584    0.007321984   -0.000084701
     12        1          -0.001189396   -0.000359581   -0.000000820
 -------------------------------------------------------------------
 Cartesian Forces:  Max     0.020368787 RMS     0.006892836

 GradGradGradGradGradGradGradGradGradGradGradGradGradGradGradGradGradGrad
 Berny optimization.
 Using GEDIIS/GDIIS optimizer.
 FormGI is forming the generalized inverse of G from B-inverse, IUseBI=4.
 Internal  Forces:  Max     0.025447036 RMS     0.005642517
 Search for a local minimum.
 Step number   3 out of a maximum of   61
 All quantities printed in internal units (Hartrees-Bohrs-Radians)
 Mixed Optimization -- RFO/linear search
 Update second derivatives using D2CorX and points    1    2    3
 DE= -5.30D-03 DEPred=-6.93D-03 R= 7.65D-01
 TightC=F SS=  1.41D+00  RLast= 3.23D-01 DXNew= 8.4853D-01 9.7035D-01
 Trust test= 7.65D-01 RLast= 3.23D-01 DXMaxT set to 8.49D-01
 ITU=  1  1  0
 Use linear search instead of GDIIS.
     Eigenvalues ---    0.00913   0.01721   0.01738   0.02082   0.02175
     Eigenvalues ---    0.02231   0.02324   0.02336   0.03274   0.15387
     Eigenvalues ---    0.16000   0.16000   0.16512   0.21876   0.22395
     Eigenvalues ---    0.24998   0.27109   0.29652   0.35959   0.35982
     Eigenvalues ---    0.36104   0.40705   0.46187   0.50345   0.53435
     Eigenvalues ---    0.56126   0.57794   0.59086   0.76943   0.99639
 RFO step:  Lambda=-1.64329307D-03 EMin= 9.12838513D-03
 Quartic linear search produced a step of -0.25103.
 Iteration  1 RMS(Cart)=  0.01925596 RMS(Int)=  0.00030040
 Iteration  2 RMS(Cart)=  0.00025993 RMS(Int)=  0.00000867
 Iteration  3 RMS(Cart)=  0.00000005 RMS(Int)=  0.00000867
 Variable       Old X    -DE/DX   Delta X   Delta X   Delta X     New X
                                 (Linear)    (Quad)   (Total)
    R1        2.56598  -0.00020  -0.00230   0.00286   0.00057   2.56655
    R2        2.49432   0.00106   0.00174  -0.00050   0.00124   2.49556
    R3        2.58219   0.00030  -0.00338   0.00440   0.00103   2.58322
    R4        2.67206  -0.00529   0.02576  -0.03337  -0.00760   2.66446
    R5        2.57779   0.00814   0.00471   0.00695   0.01165   2.58943
    R6        2.04213  -0.00086  -0.00015  -0.00155  -0.00170   2.04043
    R7        2.68967  -0.00310  -0.00510   0.00002  -0.00510   2.68457
    R8        2.03989  -0.00032   0.00016  -0.00072  -0.00056   2.03933
    R9        2.04308   0.00060  -0.00038   0.00155   0.00117   2.04425
   R10        2.27815   0.01087   0.00148   0.00604   0.00752   2.28567
   R11        2.45665   0.02545  -0.00727   0.03186   0.02459   2.48123
   R12        1.85001   0.00140  -0.00803   0.01014   0.00211   1.85212
    A1        1.79379   0.01170   0.01511   0.01689   0.03202   1.82582
    A2        1.98877  -0.00905  -0.01293  -0.01369  -0.02661   1.96216
    A3        2.11745  -0.00037  -0.01601   0.02149   0.00547   2.12292
    A4        2.17697   0.00941   0.02895  -0.00780   0.02114   2.19810
    A5        1.84529   0.00270   0.00642   0.00347   0.00989   1.85518
    A6        2.12738  -0.00280  -0.00346  -0.00777  -0.01123   2.11615
    A7        2.31052   0.00010  -0.00296   0.00430   0.00134   2.31185
    A8        1.82442   0.00195   0.00176   0.00457   0.00631   1.83072
    A9        2.21508   0.00070   0.00118   0.00263   0.00382   2.21891
   A10        2.24369  -0.00266  -0.00294  -0.00720  -0.01013   2.23355
   A11        1.97251  -0.00731  -0.01036  -0.01124  -0.02162   1.95090
   A12        2.07506   0.00477   0.00541   0.01032   0.01573   2.09079
   A13        2.23561   0.00254   0.00495   0.00093   0.00589   2.24150
   A14        2.11624   0.00075  -0.01096   0.01145   0.00049   2.11673
   A15        2.01984  -0.00574  -0.00085  -0.00818  -0.00903   2.01081
   A16        2.14709   0.00498   0.01180  -0.00326   0.00854   2.15564
   A17        1.87491   0.01657   0.06121   0.00072   0.06193   1.93684
    D1       -0.00051   0.00001   0.00014   0.00007   0.00021  -0.00031
    D2       -3.14107  -0.00000  -0.00009   0.00032   0.00021  -3.14086
    D3        0.00009   0.00000  -0.00005   0.00015   0.00010   0.00019
    D4       -3.14146  -0.00000  -0.00004  -0.00002  -0.00006  -3.14152
    D5        0.00074  -0.00003  -0.00018  -0.00026  -0.00044   0.00031
    D6       -3.14159  -0.00001  -0.00021   0.00038   0.00017  -3.14142
    D7        3.14126  -0.00001   0.00005  -0.00049  -0.00045   3.14081
    D8       -0.00107   0.00001   0.00001   0.00015   0.00015  -0.00092
    D9        3.13984  -0.00006   0.00040  -0.00321  -0.00281   3.13703
   D10       -0.00437   0.00011   0.00092   0.00153   0.00246  -0.00191
   D11       -0.00060  -0.00006   0.00015  -0.00293  -0.00278  -0.00338
   D12        3.13837   0.00010   0.00068   0.00181   0.00249   3.14087
   D13       -0.00061   0.00002   0.00013   0.00031   0.00044  -0.00017
   D14        3.14129   0.00001   0.00009   0.00004   0.00013   3.14142
   D15       -3.14136  -0.00000   0.00017  -0.00042  -0.00025   3.14157
   D16        0.00054  -0.00001   0.00013  -0.00069  -0.00056  -0.00002
   D17        0.00034  -0.00001  -0.00006  -0.00030  -0.00035  -0.00001
   D18       -3.14130  -0.00001  -0.00007  -0.00011  -0.00018  -3.14147
   D19       -3.14157  -0.00000  -0.00002  -0.00002  -0.00004   3.14158
   D20       -0.00002   0.00000  -0.00003   0.00017   0.00014   0.00012
   D21        0.00639  -0.00014   0.00152  -0.00701  -0.00549   0.00090
   D22       -3.13787   0.00003   0.00205  -0.00215  -0.00010  -3.13797
         Item               Value     Threshold  Converged?
 Maximum Force            0.025447     0.000450     NO 
 RMS     Force            0.005643     0.000300     NO 
 Maximum Displacement     0.084696     0.001800     NO 
 RMS     Displacement     0.019146     0.001200     NO 
 Predicted change in Energy=-1.646559D-03
 GradGradGradGradGradGradGradGradGradGradGradGradGradGradGradGradGradGrad

                          Input orientation:                          
 ---------------------------------------------------------------------
 Center     Atomic      Atomic             Coordinates (Angstroms)
 Number     Number       Type             X           Y           Z
 ---------------------------------------------------------------------
      1          7           0       -0.716849    1.136608    0.002165
      2          7           0       -0.034098   -0.037465    0.000215
      3          6           0       -0.864324   -1.123447   -0.001347
      4          6           0       -2.142690   -0.630073   -0.000768
      5          6           0       -1.988996    0.782202    0.001429
      6          1           0       -0.471123   -2.129055   -0.002825
      7          1           0       -3.060239   -1.198144   -0.001768
      8          6           0        1.375417   -0.073281    0.001173
      9          8           0        1.976964   -1.122606    0.004141
     10          8           0        1.964691    1.100071    0.001781
     11          1           0        1.304302    1.824283    0.002283
     12          1           0       -2.758724    1.542297    0.002592
 ---------------------------------------------------------------------
                    Distance matrix (angstroms):
                    1          2          3          4          5
     1  N    0.000000
     2  N    1.358161   0.000000
     3  C    2.264864   1.366980   0.000000
     4  C    2.270284   2.190284   1.370269   0.000000
     5  C    1.320592   2.119784   2.212780   1.420615   0.000000
     6  H    3.274899   2.136762   1.079749   2.245236   3.283197
     7  H    3.307954   3.241097   2.197185   1.079168   2.251520
     8  C    2.416901   1.409971   2.473721   3.561895   3.471474
     9  O    3.515776   2.285152   2.841294   4.148995   4.399675
    10  O    2.681789   2.299815   3.598245   4.456902   3.966445
    11  H    2.134936   2.292908   3.659517   4.231504   3.454236
    12  H    2.081786   3.149482   3.270314   2.258030   1.081769
                    6          7          8          9         10
     6  H    0.000000
     7  H    2.751385   0.000000
     8  C    2.763320   4.576065   0.000000
     9  O    2.646908   5.037773   1.209525   0.000000
    10  O    4.044808   5.525552   1.313011   2.222712   0.000000
    11  H    4.333711   5.308889   1.898897   3.022686   0.980101
    12  H    4.325733   2.756981   4.438605   5.434008   4.744071
                   11         12
    11  H    0.000000
    12  H    4.072799   0.000000
 Stoichiometry    C4H4N2O2
 Framework group  C1[X(C4H4N2O2)]
 Deg. of freedom    30
 Full point group                 C1      NOp   1
 Largest Abelian subgroup         C1      NOp   1
 Largest concise Abelian subgroup C1      NOp   1
                         Standard orientation:                         
 ---------------------------------------------------------------------
 Center     Atomic      Atomic             Coordinates (Angstroms)
 Number     Number       Type             X           Y           Z
 ---------------------------------------------------------------------
      1          7           0        0.702161   -1.119012    0.000867
      2          7           0        0.027023    0.059456   -0.000896
      3          6           0        0.864260    1.140043   -0.001374
      4          6           0        2.139405    0.638406   -0.000253
      5          6           0        1.976575   -0.772846    0.001111
      6          1           0        0.477576    2.148176   -0.002572
      7          1           0        3.060612    1.200528   -0.000384
      8          6           0       -1.382231    0.104392   -0.000801
      9          8           0       -1.976977    1.157586    0.002340
     10          8           0       -1.979086   -1.065122   -0.001172
     11          1           0       -1.323398   -1.793593   -0.000636
     12          1           0        2.741367   -1.537906    0.002358
 ---------------------------------------------------------------------
 Rotational constants (GHZ):           5.2297682           1.7756679           1.3255907
 Standard basis: 6-31+G(d,p) (6D, 7F)
 There are   172 symmetry adapted cartesian basis functions of A   symmetry.
 There are   172 symmetry adapted basis functions of A   symmetry.
   172 basis functions,   284 primitive gaussians,   172 cartesian basis functions
    29 alpha electrons       29 beta electrons
       nuclear repulsion energy       359.8796298654 Hartrees.
 NAtoms=   12 NActive=   12 NUniq=   12 SFac= 1.00D+00 NAtFMM=   60 NAOKFM=F Big=F
 Integral buffers will be    131072 words long.
 Raffenetti 2 integral format.
 Two-electron integral symmetry is turned on.
 ------------------------------------------------------------------------------
 Polarizable Continuum Model (PCM)
 =================================
 Model                : PCM.
 Atomic radii         : SMD-Coulomb.
 Polarization charges : Total charges.
 Charge compensation  : None.
 Solution method      : On-the-fly selection.
 Cavity type          : VdW (van der Waals Surface) (Alpha=1.000).
 Cavity algorithm     : GePol (No added spheres)
                        Default sphere list used, NSphG=   12.
                        Lebedev-Laikov grids with approx.  5.0 points / Ang**2.
                        Smoothing algorithm: York/Karplus (Gamma=1.0000).
                        Polarization charges: spherical gaussians, with
                                              point-specific exponents (IZeta= 3).
                        Self-potential: point-specific (ISelfS= 7).
                        Self-field    : sphere-specific E.n sum rule (ISelfD= 2).
 1st derivatives      : Analytical E(r).r(x)/FMM algorithm (CHGder, D1EAlg=3).
                        Cavity 1st derivative terms included.
 Solvent              : Water, Eps=  78.355300 Eps(inf)=   1.777849
 ------------------------------------------------------------------------------
 Spheres list:
 ISph  on   Nord     Re0    Alpha      Xe            Ye            Ze
    1   N      1    1.8900  1.000      0.702161     -1.119012      0.000867
    2   N      2    1.8900  1.000      0.027023      0.059456     -0.000896
    3   C      3    1.8500  1.000      0.864260      1.140043     -0.001374
    4   C      4    1.8500  1.000      2.139405      0.638406     -0.000253
    5   C      5    1.8500  1.000      1.976575     -0.772846      0.001111
    6   H      6    1.2000  1.000      0.477576      2.148176     -0.002572
    7   H      7    1.2000  1.000      3.060612      1.200528     -0.000384
    8   C      8    1.8500  1.000     -1.382231      0.104392     -0.000801
    9   O      9    1.5200  1.000     -1.976977      1.157586      0.002340
   10   O     10    1.5200  1.000     -1.979086     -1.065122     -0.001172
   11   H     11    1.2000  1.000     -1.323398     -1.793593     -0.000636
   12   H     12    1.2000  1.000      2.741367     -1.537906      0.002358
 ------------------------------------------------------------------------------
 ------------------------------------------------------------------------------
 Atomic radii for non-electrostatic terms: SMD-CDS.
 ------------------------------------------------------------------------------
 Nuclear repulsion after PCM non-electrostatic terms =      359.8872585595 Hartrees.
 One-electron integrals computed using PRISM.
 NBasis=   172 RedAO= T EigKep=  3.82D-05  NBF=   172
 NBsUse=   172 1.00D-06 EigRej= -1.00D+00 NBFU=   172
 Initial guess from the checkpoint file:  "/home/Tinker/g16/scratch/Gau-1663779.chk"
 B after Tr=     0.000000    0.000000    0.000000
         Rot=    1.000000    0.000007    0.000002   -0.000623 Ang=   0.07 deg.
 ExpMin= 4.38D-02 ExpMax= 5.48D+03 ExpMxC= 8.25D+02 IAcc=3 IRadAn=         5 AccDes= 0.00D+00
 Harris functional with IExCor= 1009 and IRadAn=       5 diagonalized for initial guess.
 HarFok:  IExCor= 1009 AccDes= 0.00D+00 IRadAn=         5 IDoV= 1 UseB2=F ITyADJ=14
 ICtDFT=  3500011 ScaDFX=  1.000000  1.000000  1.000000  1.000000
 FoFCou: FMM=F IPFlag=           0 FMFlag=      100000 FMFlg1=           0
         NFxFlg=           0 DoJE=T BraDBF=F KetDBF=T FulRan=T
         wScrn=  0.000000 ICntrl=       500 IOpCl=  0 I1Cent=   200000004 NGrid=           0
         NMat0=    1 NMatS0=      1 NMatT0=    0 NMatD0=    1 NMtDS0=    0 NMtDT0=    0
 Petite list used in FoFCou.
 Keep R1 ints in memory in canonical form, NReq=134731469.
 Requested convergence on RMS density matrix=1.00D-08 within 128 cycles.
 Requested convergence on MAX density matrix=1.00D-06.
 Requested convergence on             energy=1.00D-06.
 No special actions if energy rises.
 Inv3:  Mode=1 IEnd=     3263547.
 Iteration    1 A*A^-1 deviation from unit magnitude is 3.11D-15 for   1033.
 Iteration    1 A*A^-1 deviation from orthogonality  is 1.99D-15 for    717    453.
 Iteration    1 A^-1*A deviation from unit magnitude is 3.11D-15 for   1033.
 Iteration    1 A^-1*A deviation from orthogonality  is 2.35D-14 for    739    710.
 Error on total polarization charges =  0.03917
 SCF Done:  E(RM062X) =  -414.649534184     A.U. after   11 cycles
            NFock= 11  Conv=0.86D-08     -V/T= 2.0084
 SMD-CDS (non-electrostatic) energy       (kcal/mol) =       4.79
 (included in total energy above)
 D1PCM: PCM CHGder 1st derivatives, ID1Alg=3 FixD1E=F DoIter=F DoCFld=F I1PDM=0.
 Calling FoFJK, ICntrl=      2127 FMM=F ISym2X=0 I1Cent= 0 IOpClX= 0 NMat=1 NMatS=1 NMatT=0.
 ***** Axes restored to original set *****
 -------------------------------------------------------------------
 Center     Atomic                   Forces (Hartrees/Bohr)
 Number     Number              X              Y              Z
 -------------------------------------------------------------------
      1        7           0.000934775    0.000040113   -0.000071885
      2        7           0.002753144    0.000278610   -0.000039301
      3        6          -0.003613896   -0.000660426   -0.000012287
      4        6           0.002218346   -0.001391832   -0.000003880
      5        6           0.001647843    0.000723954    0.000011713
      6        1           0.000210564    0.000051975   -0.000001127
      7        1          -0.000183817    0.000246101    0.000002103
      8        6          -0.006732103   -0.006924953    0.000434512
      9        8           0.000833264   -0.000160467   -0.000215291
     10        8          -0.000339028    0.008475145   -0.000064399
     11        1           0.002010914   -0.000531964   -0.000046946
     12        1           0.000259995   -0.000146256    0.000006789
 -------------------------------------------------------------------
 Cartesian Forces:  Max     0.008475145 RMS     0.002373886

 GradGradGradGradGradGradGradGradGradGradGradGradGradGradGradGradGradGrad
 Berny optimization.
 Using GEDIIS/GDIIS optimizer.
 FormGI is forming the generalized inverse of G from B-inverse, IUseBI=4.
 Internal  Forces:  Max     0.007854040 RMS     0.001635846
 Search for a local minimum.
 Step number   4 out of a maximum of   61
 All quantities printed in internal units (Hartrees-Bohrs-Radians)
 Mixed Optimization -- RFO/linear search
 Update second derivatives using D2CorX and points    1    2    3    4
 DE= -1.73D-03 DEPred=-1.65D-03 R= 1.05D+00
 TightC=F SS=  1.41D+00  RLast= 9.10D-02 DXNew= 1.4270D+00 2.7306D-01
 Trust test= 1.05D+00 RLast= 9.10D-02 DXMaxT set to 8.49D-01
 ITU=  1  1  1  0
 Use linear search instead of GDIIS.
     Eigenvalues ---    0.00913   0.01728   0.01729   0.02083   0.02176
     Eigenvalues ---    0.02232   0.02326   0.02336   0.03272   0.15513
     Eigenvalues ---    0.15995   0.16000   0.16510   0.21904   0.22415
     Eigenvalues ---    0.24643   0.28552   0.30862   0.35964   0.36012
     Eigenvalues ---    0.36110   0.40410   0.47410   0.49192   0.54194
     Eigenvalues ---    0.57646   0.58537   0.60352   0.65496   0.98931
 RFO step:  Lambda=-2.60778194D-04 EMin= 9.12865964D-03
 Quartic linear search produced a step of  0.11225.
 Iteration  1 RMS(Cart)=  0.00809830 RMS(Int)=  0.00003938
 Iteration  2 RMS(Cart)=  0.00005488 RMS(Int)=  0.00001040
 Iteration  3 RMS(Cart)=  0.00000000 RMS(Int)=  0.00001040
 Variable       Old X    -DE/DX   Delta X   Delta X   Delta X     New X
                                 (Linear)    (Quad)   (Total)
    R1        2.56655  -0.00150   0.00006  -0.00169  -0.00162   2.56493
    R2        2.49556  -0.00153   0.00014  -0.00307  -0.00293   2.49262
    R3        2.58322   0.00142   0.00012   0.00405   0.00417   2.58739
    R4        2.66446  -0.00425  -0.00085  -0.00973  -0.01058   2.65387
[...]
   D16       -0.00002   0.00000   0.00000   0.00002   0.00002   0.00000
   D17       -0.00025   0.00001   0.00000   0.00025   0.00025   0.00000
   D18        3.14155   0.00000   0.00000   0.00005   0.00005  -3.14159
   D19        3.14145   0.00001   0.00000   0.00015   0.00015  -3.14159
   D20        0.00006  -0.00000   0.00000  -0.00006  -0.00006   0.00000
   D21        0.00007  -0.00000   0.00000  -0.00007  -0.00007  -0.00000
   D22       -3.14155   0.00000   0.00000  -0.00005  -0.00005   3.14159
         Item               Value     Threshold  Converged?
 Maximum Force            0.000061     0.000450     YES
 RMS     Force            0.000018     0.000300     YES
 Maximum Displacement     0.001417     0.001800     YES
 RMS     Displacement     0.000301     0.001200     YES
 Predicted change in Energy=-3.940926D-08
 Optimization completed.
    -- Stationary point found.
                           ----------------------------
                           !   Optimized Parameters   !
                           ! (Angstroms and Degrees)  !
 --------------------------                            --------------------------
 ! Name  Definition              Value          Derivative Info.                !
 --------------------------------------------------------------------------------
 ! R1    R(1,2)                  1.358          -DE/DX =    0.0                 !
 ! R2    R(1,5)                  1.3183         -DE/DX =    0.0                 !
 ! R3    R(2,3)                  1.3702         -DE/DX =    0.0                 !
 ! R4    R(2,8)                  1.4024         -DE/DX =    0.0                 !
 ! R5    R(3,4)                  1.3672         -DE/DX =    0.0                 !
 ! R6    R(3,6)                  1.0799         -DE/DX =    0.0                 !
 ! R7    R(4,5)                  1.4225         -DE/DX =    0.0                 !
 ! R8    R(4,7)                  1.0792         -DE/DX =    0.0                 !
 ! R9    R(5,12)                 1.0814         -DE/DX =    0.0                 !
 ! R10   R(8,9)                  1.2094         -DE/DX =    0.0                 !
 ! R11   R(8,10)                 1.3233         -DE/DX =    0.0                 !
 ! R12   R(10,11)                0.9776         -DE/DX =    0.0                 !
 ! A1    A(2,1,5)              104.5866         -DE/DX =    0.0                 !
 ! A2    A(1,2,3)              112.4304         -DE/DX =    0.0                 !
 ! A3    A(1,2,8)              120.8903         -DE/DX =    0.0                 !
 ! A4    A(3,2,8)              126.6793         -DE/DX =    0.0                 !
 ! A5    A(2,3,4)              106.2024         -DE/DX =    0.0                 !
 ! A6    A(2,3,6)              121.058          -DE/DX =    0.0                 !
 ! A7    A(4,3,6)              132.7396         -DE/DX =    0.0                 !
 ! A8    A(3,4,5)              104.9564         -DE/DX =    0.0                 !
 ! A9    A(3,4,7)              127.331          -DE/DX =    0.0                 !
 ! A10   A(5,4,7)              127.7126         -DE/DX =    0.0                 !
 ! A11   A(1,5,4)              111.8241         -DE/DX =    0.0                 !
 ! A12   A(1,5,12)             119.8225         -DE/DX =    0.0                 !
 ! A13   A(4,5,12)             128.3534         -DE/DX =    0.0                 !
 ! A14   A(2,8,9)              121.9461         -DE/DX =    0.0                 !
 ! A15   A(2,8,10)             114.8611         -DE/DX =   -0.0001              !
 ! A16   A(9,8,10)             123.1928         -DE/DX =    0.0                 !
 ! A17   A(8,10,11)            111.2866         -DE/DX =    0.0                 !
 ! D1    D(5,1,2,3)             -0.0081         -DE/DX =    0.0                 !
 ! D2    D(5,1,2,8)           -179.9997         -DE/DX =    0.0                 !
 ! D3    D(2,1,5,4)              0.0136         -DE/DX =    0.0                 !
 ! D4    D(2,1,5,12)           180.0031         -DE/DX =    0.0                 !
 ! D5    D(1,2,3,4)             -0.0005         -DE/DX =    0.0                 !
 ! D6    D(1,2,3,6)            180.0028         -DE/DX =    0.0                 !
 ! D7    D(8,2,3,4)            179.9904         -DE/DX =    0.0                 !
 ! D8    D(8,2,3,6)             -0.0063         -DE/DX =    0.0                 !
 ! D9    D(1,2,8,9)            180.0003         -DE/DX =    0.0                 !
 ! D10   D(1,2,8,10)            -0.0012         -DE/DX =    0.0                 !
 ! D11   D(3,2,8,9)              0.0101         -DE/DX =    0.0                 !
 ! D12   D(3,2,8,10)           180.0086         -DE/DX =    0.0                 !
 ! D13   D(2,3,4,5)              0.0083         -DE/DX =    0.0                 !
 ! D14   D(2,3,4,7)            180.0025         -DE/DX =    0.0                 !
 ! D15   D(6,3,4,5)           -179.9955         -DE/DX =    0.0                 !
 ! D16   D(6,3,4,7)             -0.0013         -DE/DX =    0.0                 !
 ! D17   D(3,4,5,1)             -0.0142         -DE/DX =    0.0                 !
 ! D18   D(3,4,5,12)          -180.0026         -DE/DX =    0.0                 !
 ! D19   D(7,4,5,1)           -180.0083         -DE/DX =    0.0                 !
 ! D20   D(7,4,5,12)             0.0033         -DE/DX =    0.0                 !
 ! D21   D(2,8,10,11)            0.004          -DE/DX =    0.0                 !
 ! D22   D(9,8,10,11)          180.0025         -DE/DX =    0.0                 !
 --------------------------------------------------------------------------------
 GradGradGradGradGradGradGradGradGradGradGradGradGradGradGradGradGradGrad


 ----------------------------------------------------------------------

 Electric dipole moment (input orientation):
 (Debye = 10**-18 statcoulomb cm , SI units = C m)
                  (au)            (Debye)         (10**-30 SI)
   Tot        0.217694D+01      0.553324D+01      0.184569D+02
   x         -0.213585D+01     -0.542878D+01     -0.181085D+02
   y          0.421007D+00      0.107009D+01      0.356944D+01
   z         -0.363757D-03     -0.924579D-03     -0.308406D-02

 Dipole polarizability, Alpha (input orientation).
 (esu units = cm**3 , SI units = C**2 m**2 J**-1)
 Alpha(0;0):
               (au)            (10**-24 esu)      (10**-40 SI)
   iso        0.886789D+02      0.131409D+02      0.146212D+02
   aniso      0.612644D+02      0.907844D+01      0.101011D+02
   xx         0.117447D+03      0.174038D+02      0.193644D+02
   yx        -0.732568D+01     -0.108555D+01     -0.120784D+01
   yy         0.983105D+02      0.145681D+02      0.162092D+02
   zx         0.209749D-01      0.310816D-02      0.345829D-02
   zy         0.456046D-01      0.675790D-02      0.751918D-02
   zz         0.502794D+02      0.745064D+01      0.828996D+01

 ----------------------------------------------------------------------

 Dipole orientation:
     7          0.35839026          1.79947438          1.72073057
     7         -0.01856571         -0.10197737          0.03911440
     6         -0.46863624         -2.37248537          1.19962998
     6         -0.37766729         -1.91389695          3.74060890
     6          0.14304470          0.71473398          3.95296329
     1         -0.80392054         -4.06420604          0.10877238
     1         -0.64417165         -3.25881425          5.25037911
     6          0.07166263          0.35165782         -2.57027821
     8         -0.25863365         -1.31440286         -4.09947033
     8          0.54200623          2.72305347         -3.20946873
     1          0.75370455          3.79070210         -1.71664499
     1          0.36408385          1.83053438          5.65067756

 Electric dipole moment (dipole orientation):
 (Debye = 10**-18 statcoulomb cm , SI units = C m)
                  (au)            (Debye)         (10**-30 SI)
   Tot        0.217694D+01      0.553324D+01      0.184569D+02
   x          0.000000D+00      0.000000D+00      0.000000D+00
   y          0.000000D+00      0.000000D+00      0.000000D+00
   z          0.217694D+01      0.553324D+01      0.184569D+02

 Dipole polarizability, Alpha (dipole orientation).
 (esu units = cm**3 , SI units = C**2 m**2 J**-1)
 Alpha(0;0):
               (au)            (10**-24 esu)      (10**-40 SI)
   iso        0.886789D+02      0.131409D+02      0.146212D+02
   aniso      0.612644D+02      0.907844D+01      0.101011D+02
   xx         0.520173D+02      0.770817D+01      0.857650D+01
   yx         0.876750D+01      0.129921D+01      0.144556D+01
   yy         0.945083D+02      0.140047D+02      0.155823D+02
   zx         0.608374D+00      0.901517D-01      0.100307D+00
   zy         0.308738D+01      0.457503D+00      0.509041D+00
   zz         0.119511D+03      0.177097D+02      0.197047D+02

 ----------------------------------------------------------------------
 Unable to Open any file for archive entry.
 1\1\GINC-XIELAB72C\Freq\RM062X\6-31+G(d,p)\C4H4N2O2\TINKER\27-Oct-2023
 \0\\#N Geom=AllCheck Guess=TCheck SCRF=Check GenChk RM062X/6-31+G(d,p)
  Freq\\Title Card Required\\0,1\N,-0.7056076841,1.1287096351,0.0017623
 402\N,-0.0309145423,-0.0498069554,0.0007937672\C,-0.8703223179,-1.1327
 946875,-0.0006172616\C,-2.1417195673,-0.6300202678,-0.0005436984\C,-1.
 9777317838,0.7829816547,0.0007719898\H,-0.480460093,-2.1398353065,-0.0
 014664298\H,-3.0658867099,-1.1873516525,-0.0014048083\C,1.3711822491,-
 0.0767157921,0.0014451378\O,1.9912972498,-1.1150436294,0.0005984173\O,
 1.9504558836,1.1130502941,0.0030108053\H,1.2867907057,1.8309257061,0.0
 035273322\H,-2.74275379,1.5472911312,0.0011922184\\Version=ES64L-G16Re
 vC.01\State=1-A\HF=-414.6497324\RMSD=2.641e-09\RMSF=2.079e-05\ZeroPoin
 t=0.0863155\Thermal=0.0926164\ETot=-414.557116\HTot=-414.5561718\GTot=
 -414.5943154\Dipole=-2.1358459,0.4210065,-0.0003638\DipoleDeriv=-0.004
 732,-0.4920559,-0.0003606,-0.705998,-0.6270983,-0.0006147,-0.0007254,-
 0.0005506,-0.2959246,-2.5688599,0.1737059,-0.0009055,0.0039977,-0.1751
 577,-0.0000885,-0.0010153,-0.0000683,-0.0753147,1.0066534,-0.0808412,0
 .0003294,0.4654389,-0.0635565,0.0001762,0.0009138,-0.000044,-0.0593146
 ,-0.4703382,0.2317995,0.0001133,0.5257257,-0.3947889,0.0000822,0.00040
 22,-0.0000175,-0.2728125,-0.1371863,0.2495634,0.0002209,-0.3459471,0.7
 160973,0.0005586,-0.0003682,0.0008286,-0.0265446,0.1574696,0.0085213,-
 0.0000263,-0.0043519,0.1572669,-0.0000981,-0.0000458,-0.0000758,0.2569
 209,0.0955894,-0.0496607,-0.0001047,-0.0584858,0.1225987,-0.000134,-0.
 0001394,-0.0001204,0.2422214,3.81154,-0.2165754,0.0012131,-0.4300565,2
 .9449846,0.0023352,0.000998,0.0024272,0.6349107,-1.5627019,0.5433988,0
 .0001375,0.8567974,-1.5889748,-0.0007345,0.0004672,-0.0008798,-0.55940
 28,-1.0223291,-0.4071262,-0.0006788,-0.4077381,-1.7558316,-0.0015515,-
 0.0006807,-0.0015498,-0.5032352,0.5845146,0.0121158,0.0000736,0.042794
 4,0.5976485,0.0001697,0.0001264,0.0001714,0.4616905,0.1103805,0.027154
 7,-0.000012,0.0578233,0.0668117,-0.0001004,0.0000672,-0.0001211,0.1968
 055\Polar=117.4467463,-7.3256848,98.3105416,0.0209749,0.0456046,50.279
 4177\Quadrupole=-1.8455946,2.6873652,-0.8417706,4.0620848,0.0037856,0.
 0052944\PG=C01 [X(C4H4N2O2)]\NImag=0\\0.64502180,0.06321540,0.48507416
 ,0.00032054,0.00042427,0.10230072,-0.10462913,0.00799524,-0.00001046,0
 .81490711,0.10171453,-0.24845576,-0.00015196,0.03235384,0.68633493,0.0
 0008326,-0.00018697,-0.06497564,0.00034537,0.00060754,0.10589901,-0.03
 867008,-0.00768878,-0.00003136,-0.14987734,-0.09857094,-0.00013942,0.6
 9664543,0.00163458,-0.08760052,-0.00009989,-0.07992171,-0.25071115,-0.
 00022705,-0.15550220,0.84343118,-0.00001761,-0.00010709,0.01443381,-0.
 00011490,-0.00022922,-0.05720976,0.00005212,0.00065108,0.13323372,-0.0
 1387495,-0.02144412,-0.00003393,-0.10049387,-0.04806638,-0.00008651,-0
 .38322484,0.12211764,0.00001378,0.88167636,-0.09258477,-0.03011470,-0.
 00008592,0.02954591,0.00857030,0.00000874,0.08925719,-0.16285562,-0.00
 006835,0.11001564,0.62476031,-0.00010863,-0.00006456,0.02186095,-0.000
 01634,-0.00001854,0.00926828,-0.00001724,-0.00005198,-0.06637739,0.000
 37666,0.00051464,0.12218738,-0.41751256,-0.07503294,-0.00024633,-0.133
 71718,0.03726929,-0.00002636,0.02936831,0.02468143,0.00002907,-0.12085
 702,0.00478624,-0.00001135,0.83225023,-0.10226395,-0.13377532,-0.00011
 947,0.01256051,-0.02870475,-0.00002722,0.08430190,-0.03096205,-0.00000
 388,-0.03387625,-0.29145028,-0.00021118,-0.12897567,0.71716314,-0.0002
 7421,-0.00010186,-0.07112287,-0.00004306,-0.00002152,0.01043832,0.0000
 9272,-0.00003410,0.00967015,-0.00005546,-0.00019631,-0.06744273,0.0001
 8462,0.00049189,0.14839130,-0.00312117,-0.00422806,-0.00000761,0.01295
 851,-0.02233254,-0.00001660,-0.10145437,0.11440026,0.00008903,0.003925
 20,0.02079033,0.00001907,-0.00538642,0.00228697,-0.00000162,0.09254899
 ,-0.00202594,0.00002538,-0.00000611,0.00922879,-0.01647476,-0.00001121
 ,0.10425496,-0.33086606,-0.00025487,-0.00115927,0.00347367,-0.00000170
 ,-0.00118878,0.00002079,-0.00000624,-0.11122833,0.34372427,-0.00000464
 ,-0.00000726,0.00536516,0.00001478,-0.00002279,-0.00151557,0.00007830,
 -0.00025075,-0.03282626,-0.00000249,0.00000727,0.00464304,-0.00000573,
 -0.00000564,0.00580497,-0.00008433,0.00027478,0.02304633,0.00110692,0.
 00198246,0.00000066,-0.00383363,0.00163022,-0.00000222,-0.00993466,-0.
 01527104,-0.00001940,-0.28922765,-0.13977199,-0.00022751,0.00607247,0.
 00284023,0.00000577,0.00058694,0.00029247,0.00000178,0.29554599,-0.002
 38110,-0.00615627,-0.00001216,0.00480696,-0.00160632,-0.00000627,0.011
 93375,0.01222141,0.00001694,-0.14150484,-0.14050593,-0.00015425,-0.022
 68317,-0.00176211,-0.00000980,-0.00091917,-0.00022031,0.00000255,0.149
 67709,0.13606620,-0.00000462,-0.00001042,0.00570742,-0.00000104,-0.000
 00937,0.00686164,0.00000983,0.00000766,-0.00017559,-0.00023151,-0.0001
 5427,-0.03008404,-0.00001729,0.00000109,-0.00203634,0.00000054,0.00000
 321,-0.00339873,0.00024214,0.00016033,0.02341238,-0.04974564,0.0371481
 2,0.00002522,-0.20807174,-0.00234622,-0.00007729,-0.05806302,-0.030322
 90,-0.00005251,0.02414291,-0.02533919,-0.00001537,0.02953379,0.0179142
 4,0.00002786,0.00036942,0.00106290,0.00000186,0.00087164,-0.00024628,0
 .00000025,0.66149593,0.02948155,0.00700830,0.00003593,-0.03001987,-0.1
 2326667,-0.00009213,-0.02141632,0.01484737,0.00001419,-0.00773695,-0.0
 0457415,-0.00000965,0.00240455,-0.01265452,-0.00001441,0.00040115,-0.0
 0153701,0.00000005,-0.00094476,0.00090503,-0.00000176,-0.18035195,0.93
 371575,0.00001458,0.00003974,-0.01413372,-0.00011224,-0.00007907,-0.05
 042186,-0.00004028,0.00001229,-0.00968134,0.00000224,-0.00001744,0.002
 51580,0.00001355,-0.00000861,0.00276516,0.00000106,0.00000019,-0.00142
 438,-0.00000112,-0.00000150,0.00235967,0.00001350,0.00070424,0.2116821
 0,-0.00043376,-0.01361779,-0.00001779,-0.06728606,0.05779760,0.0000241
 2,0.01229532,0.00851774,0.00001391,-0.00546067,0.00690540,0.00000391,-
 0.00910374,0.00012677,-0.00000337,-0.00131252,0.00073669,0.00000035,-0
 .00025301,-0.00007965,-0.00000031,-0.25798003,0.26652889,0.00020945,0.
 30033759,-0.00209210,0.00832470,0.00000167,0.05350372,-0.00885990,-0.0
 0000262,-0.01200182,-0.00877971,-0.00001421,0.00629273,-0.00580876,-0.
 00000319,0.00659602,0.00437801,0.00000693,-0.00043585,0.00121891,0.000
 00089,0.00018553,0.00004240,0.00000061,0.26615767,-0.52952180,-0.00036
 523,-0.32657750,0.65733176,-0.00000545,-0.00000372,0.00610083,0.000018
 39,0.00000017,0.01706971,-0.00000797,-0.00000596,0.00010512,0.00000400
 ,-0.00000348,0.00034890,0.00000341,0.00000479,-0.00027952,-0.00000097,
 0.00000148,0.00013426,0.00000014,0.00000021,-0.00021223,0.00020957,-0.
 00036420,-0.08240472,-0.00023316,0.00052510,0.03677994,-0.00576287,-0.
 00620386,-0.00001084,-0.04930567,-0.05132045,-0.00008519,0.00193457,0.
 01026639,0.00000797,-0.00667059,-0.00020168,-0.00000259,-0.00202798,-0
 .00503544,-0.00000611,-0.00004228,-0.00020730,-0.00000017,-0.00051217,
 0.00022440,0.00000055,-0.16734797,-0.05279261,-0.00010627,0.03090810,0
 .01957295,0.00002749,0.45507953,0.01321083,-0.00652824,-0.00000023,-0.
 03793183,-0.01838052,-0.00005380,0.00743447,0.00903856,0.00000658,-0.0
 0466343,0.00454835,0.00000274,-0.00678061,-0.00249481,-0.00000609,0.00
 007631,0.00028749,0.00000038,-0.00030929,0.00042076,0.00000115,-0.1066
 8995,-0.24097105,-0.00024824,0.00469285,-0.11995489,-0.00014737,-0.106
 20413,0.63624646,0.00000974,-0.00001013,0.00061650,-0.00007160,-0.0000
 6140,0.01488580,0.00000604,0.00000969,0.00517656,-0.00000825,0.0000043
 0,-0.00028831,-0.00000823,-0.00000566,0.00088990,0.00000007,0.00000030
 ,-0.00009204,-0.00000031,0.00000152,-0.00098065,-0.00016710,-0.0002254
 7,-0.05888278,0.00001145,-0.00014058,0.01661488,0.00006900,0.00062817,
 0.03186108,0.00550506,-0.00444685,-0.00000681,-0.00523097,-0.00663148,
 -0.00000987,0.00173340,0.00272745,0.00000367,0.00011265,0.00227753,0.0
 0000200,-0.00386120,0.00151029,0.00000025,0.00014284,0.00011102,0.0000
 0010,-0.00010046,0.00042709,0.00000020,0.02368156,-0.00685456,0.000004
 96,-0.00076075,-0.01154921,-0.00001593,-0.25607168,0.23733933,0.000159
 37,0.23482633,0.00018316,0.00052632,-0.00000039,0.00284413,-0.00037591
 ,0.00000051,-0.00073848,-0.00217817,-0.00000157,0.00169406,0.00005641,
 0.00000017,0.00080913,0.00082338,0.00000216,0.00004913,-0.00000527,0.0
 0000004,0.00013846,0.00001667,-0.00000020,0.02256497,-0.04488198,-0.00
 003488,-0.00455584,0.00134906,-0.00000817,0.19180230,-0.26215430,-0.00
 020093,-0.21492890,0.30681760,0.00000205,-0.00000337,0.00011153,0.0000
 0102,-0.00000367,0.00039226,0.00000042,-0.00000049,-0.00064534,0.00000
 195,0.00000106,0.00046688,-0.00000085,0.00000254,-0.00075824,0.0000001
 5,0.00000008,-0.00002844,0.00000006,0.00000007,0.00020288,0.00003555,-
 0.00004535,-0.00516411,-0.00000855,-0.00001057,0.00683418,0.00010593,-
 0.00018356,-0.00959720,-0.00013798,0.00024311,0.00833720,-0.01788362,0
 .02232118,0.00001871,-0.00542003,-0.00149748,-0.00000927,-0.00075272,-
 0.00332765,-0.00000513,0.00995246,-0.00568061,-0.00000261,-0.20475869,
 0.14861039,0.00007261,0.00078486,0.00012280,0.00000019,-0.00032240,0.0
 0074492,0.00000126,0.00111315,0.00130088,0.00000057,-0.00095047,0.0003
 4785,0.00000047,-0.00018099,-0.00017455,-0.00000019,0.00002322,0.00013
 787,0.00000024,0.21839522,-0.00809219,0.01167194,0.00001426,-0.0049656
 9,0.00193051,-0.00000952,-0.00126373,-0.00558525,-0.00000960,0.0183311
 6,-0.00609960,-0.00000250,0.15811449,-0.22058147,-0.00011064,0.0011397
 9,0.00035290,0.00000048,-0.00044938,0.00057847,0.00000196,0.00044858,0
 .00093072,-0.00000150,-0.00047517,0.00028023,0.00000115,0.00009944,-0.
 00005781,0.00000018,0.00001829,0.00000619,0.00000016,-0.16290559,0.216
 57317,-0.00001501,0.00003138,-0.00626468,-0.00000993,-0.00001017,0.009
 30781,-0.00000317,-0.00001050,0.00429631,0.00001952,-0.00001025,0.0029
 0123,0.00008551,-0.00011866,-0.03632010,0.00000120,0.00000008,0.000291
 67,0.00000001,0.00000235,-0.00165641,-0.00000155,-0.00000144,0.0027901
 7,0.,0.00000121,-0.00109134,0.00000025,0.00000026,-0.00020374,0.000000
 03,0.00000016,-0.00015160,-0.00007685,0.00011559,0.02610069\\-0.000014
 97,-0.00000703,0.00002644,0.00002521,0.00006054,-0.00000979,-0.0000297
 0,-0.00003081,-0.00001027,0.00001657,-0.00001245,0.00002279,0.00000017
 ,-0.00001871,-0.00003238,0.00000199,-0.00000169,-0.00000093,0.00000373
 ,-0.00001264,0.00000318,-0.00003288,-0.00002239,0.00000332,-0.00000315
 ,0.00001406,-0.00000064,-0.00000345,0.00004992,-0.00000147,0.00003383,
 -0.00001554,0.00000053,0.00000264,-0.00000325,-0.00000077\\\@
 The archive entry for this job was punched.


 NATURE GIVES TO EVERY TIME AND SEASON SOME BEAUTY OF ITS OWN.

                                                    --DICKENS
 Job cpu time:       0 days  0 hours 29 minutes 12.9 seconds.
 Elapsed time:       0 days  0 hours  1 minutes 14.4 seconds.
 File lengths (MBytes):  RWF=     64 Int=      0 D2E=      0 Chk=      7 Scr=      1
 Normal termination of Gaussian 16 at Fri Oct 27 05:40:58 2023.
