 Entering Gaussian System, Link 0=/opt/soft/g16b/g16/g16
 Initial command:
 /opt/soft/g16b/g16/l1.exe "/scratch/gongke2021/bizuo/Gau-19805.inp" -scrdir="/scratch/gongke2021/bizuo/"
 Entering Link 1 = /opt/soft/g16b/g16/l1.exe PID=     19806.
  
 Copyright (c) 1988,1990,1992,1993,1995,1998,2003,2009,2016,
            Gaussian, Inc.  All Rights Reserved.
  
 This is part of the Gaussian(R) 16 program.  It is based on
 the Gaussian(R) 09 system (copyright 2009, Gaussian, Inc.),
 the Gaussian(R) 03 system (copyright 2003, Gaussian, Inc.),
 the Gaussian(R) 98 system (copyright 1998, Gaussian, Inc.),
 the Gaussian(R) 94 system (copyright 1995, Gaussian, Inc.),
 the Gaussian 92(TM) system (copyright 1992, Gaussian, Inc.),
 the Gaussian 90(TM) system (copyright 1990, Gaussian, Inc.),
 the Gaussian 88(TM) system (copyright 1988, Gaussian, Inc.),
 the Gaussian 86(TM) system (copyright 1986, Carnegie Mellon
 University), and the Gaussian 82(TM) system (copyright 1983,
 Carnegie Mellon University). Gaussian is a federally registered
 trademark of Gaussian, Inc.
  
 This software contains proprietary and confidential information,
 including trade secrets, belonging to Gaussian, Inc.
  
 This software is provided under written license and may be
 used, copied, transmitted, or stored only in accord with that
 written license.
  
 The following legend is applicable only to US Government
 contracts under FAR:
  
                    RESTRICTED RIGHTS LEGEND
  
 Use, reproduction and disclosure by the US Government is
 subject to restrictions as set forth in subparagraphs (a)
 and (c) of the Commercial Computer Software - Restricted
 Rights clause in FAR 52.227-19.
  
 Gaussian, Inc.
 340 Quinnipiac St., Bldg. 40, Wallingford CT 06492
  
  
 ---------------------------------------------------------------
 Warning -- This program may not be used in any manner that
 competes with the business of Gaussian, Inc. or will provide
 assistance to any competitor of Gaussian, Inc.  The licensee
 of this program is prohibited from giving any competitor of
 Gaussian, Inc. access to this program.  By using this program,
 the user acknowledges that Gaussian, Inc. is engaged in the
 business of creating and licensing software in the field of
 computational chemistry and represents and warrants to the
 licensee that it is not a competitor of Gaussian, Inc. and that
 it will not use this program in any manner prohibited above.
 ---------------------------------------------------------------
  

 Cite this work as:
 Gaussian 16, Revision A.03,
 M. J. Frisch, G. W. Trucks, H. B. Schlegel, G. E. Scuseria, 
 M. A. Robb, J. R. Cheeseman, G. Scalmani, V. Barone, 
 G. A. Petersson, H. Nakatsuji, X. Li, M. Caricato, A. V. Marenich, 
 J. Bloino, B. G. Janesko, R. Gomperts, B. Mennucci, H. P. Hratchian, 
 J. V. Ortiz, A. F. Izmaylov, J. L. Sonnenberg, D. Williams-Young, 
 F. Ding, F. Lipparini, F. Egidi, J. Goings, B. Peng, A. Petrone, 
 T. Henderson, D. Ranasinghe, V. G. Zakrzewski, J. Gao, N. Rega, 
 G. Zheng, W. Liang, M. Hada, M. Ehara, K. Toyota, R. Fukuda, 
 J. Hasegawa, M. Ishida, T. Nakajima, Y. Honda, O. Kitao, H. Nakai, 
 T. Vreven, K. Throssell, J. A. Montgomery, Jr., J. E. Peralta, 
 F. Ogliaro, M. J. Bearpark, J. J. Heyd, E. N. Brothers, K. N. Kudin, 
 V. N. Staroverov, T. A. Keith, R. Kobayashi, J. Normand, 
 K. Raghavachari, A. P. Rendell, J. C. Burant, S. S. Iyengar, 
 J. Tomasi, M. Cossi, J. M. Millam, M. Klene, C. Adamo, R. Cammi, 
 J. W. Ochterski, R. L. Martin, K. Morokuma, O. Farkas, 
 J. B. Foresman, and D. J. Fox, Gaussian, Inc., Wallingford CT, 2016.
 
 ******************************************
 Gaussian 16:  ES64L-G16RevA.03 25-Dec-2016
                 5-Nov-2023 
 ******************************************
 %mem=10GB
 %nprocshared=20
 Will use up to   20 processors via shared memory.
 -----------------------------------------------------
 # opt freq 6-31+g(d,p) scrf=(smd,solvent=water) m062x
 -----------------------------------------------------
 1/18=20,19=15,26=3,38=1/1,3;
 2/9=110,12=2,17=6,18=5,40=1/2;
 3/5=1,6=6,7=111,11=2,25=1,30=1,70=32201,71=1,72=1,74=-55/1,2,3;
 4//1;
 5/5=2,38=5,53=1/2;
 6/7=2,8=2,9=2,10=2,28=1/1;
 7//1,2,3,16;
 1/18=20,19=15,26=3/3(2);
 2/9=110/2;
 99//99;
 2/9=110/2;
 3/5=1,6=6,7=111,11=2,25=1,30=1,70=32205,71=1,72=1,74=-55/1,2,3;
 4/5=5,16=3,69=1/1;
 5/5=2,38=5,53=1/2;
 7//1,2,3,16;
 1/18=20,19=15,26=3/3(-5);
 2/9=110/2;
 6/7=2,8=2,9=2,10=2,19=2,28=1/1;
 99/9=1/99;
 -------------------
 Title Card Required
 -------------------
 Symbolic Z-matrix:
 Charge =  0 Multiplicity = 1
 N                    -1.19426   0.78788   0.00224 
 N                    -0.44814  -0.31901  -0.12444 
 C                    -1.31894  -1.32765  -0.0906 
 C                    -2.63987  -0.85885   0.05846 
 C                    -2.51037   0.51756   0.11529 
 H                    -0.96652  -2.3472   -0.17434 
 H                    -3.55055  -1.4356    0.11659 
 C                     2.20303  -0.8988    0.05653 
 O                     1.93878  -2.01867  -0.10865 
 O                     2.53533   0.20434   0.22849 
 H                    -0.71895   1.69118   0.00644 
 H                    -3.2391    1.30746   0.22504 
 O                     0.90323   2.76191  -0.02244 
 H                     1.56078   2.05516  -0.09761 
 H                     0.9893    3.2727   -0.83803 
 
 Add virtual bond connecting atoms O13        and H11        Dist= 3.67D+00.
 Add virtual bond connecting atoms H14        and O10        Dist= 4.00D+00.

 GradGradGradGradGradGradGradGradGradGradGradGradGradGradGradGradGradGrad
 Berny optimization.
 Initialization pass.
                           ----------------------------
                           !    Initial Parameters    !
                           ! (Angstroms and Degrees)  !
 --------------------------                            --------------------------
 ! Name  Definition              Value          Derivative Info.                !
 --------------------------------------------------------------------------------
 ! R1    R(1,2)                  1.3409         estimate D2E/DX2                !
 ! R2    R(1,5)                  1.3483         estimate D2E/DX2                !
 ! R3    R(1,11)                 1.0207         estimate D2E/DX2                !
 ! R4    R(2,3)                  1.333          estimate D2E/DX2                !
 ! R5    R(3,4)                  1.4096         estimate D2E/DX2                !
 ! R6    R(3,6)                  1.082          estimate D2E/DX2                !
 ! R7    R(4,5)                  1.3837         estimate D2E/DX2                !
 ! R8    R(4,7)                  1.0795         estimate D2E/DX2                !
 ! R9    R(5,12)                 1.0803         estimate D2E/DX2                !
 ! R10   R(8,9)                  1.1624         estimate D2E/DX2                !
 ! R11   R(8,10)                 1.1649         estimate D2E/DX2                !
 ! R12   R(10,14)                2.117          estimate D2E/DX2                !
 ! R13   R(11,13)                1.9439         estimate D2E/DX2                !
 ! R14   R(13,14)                0.9683         estimate D2E/DX2                !
 ! R15   R(13,15)                0.9662         estimate D2E/DX2                !
 ! A1    A(2,1,5)              112.6793         estimate D2E/DX2                !
 ! A2    A(2,1,11)             118.1514         estimate D2E/DX2                !
 ! A3    A(5,1,11)             129.1684         estimate D2E/DX2                !
 ! A4    A(1,2,3)              104.9948         estimate D2E/DX2                !
 ! A5    A(2,3,4)              111.2984         estimate D2E/DX2                !
 ! A6    A(2,3,6)              119.8864         estimate D2E/DX2                !
 ! A7    A(4,3,6)              128.8152         estimate D2E/DX2                !
 ! A8    A(3,4,5)              104.3283         estimate D2E/DX2                !
 ! A9    A(3,4,7)              128.2113         estimate D2E/DX2                !
 ! A10   A(5,4,7)              127.4603         estimate D2E/DX2                !
 ! A11   A(1,5,4)              106.6991         estimate D2E/DX2                !
 ! A12   A(1,5,12)             121.3571         estimate D2E/DX2                !
 ! A13   A(4,5,12)             131.9437         estimate D2E/DX2                !
 ! A14   A(8,10,14)            132.3679         estimate D2E/DX2                !
 ! A15   A(1,11,13)            151.1603         estimate D2E/DX2                !
 ! A16   A(11,13,14)            99.5446         estimate D2E/DX2                !
 ! A17   A(11,13,15)           112.2144         estimate D2E/DX2                !
 ! A18   A(14,13,15)           105.0612         estimate D2E/DX2                !
 ! A19   A(10,14,13)           159.8536         estimate D2E/DX2                !
 ! A20   L(9,8,10,1,-1)        183.4601         estimate D2E/DX2                !
 ! A21   L(9,8,10,1,-2)        179.8278         estimate D2E/DX2                !
 ! D1    D(5,1,2,3)             -0.0113         estimate D2E/DX2                !
 ! D2    D(11,1,2,3)           179.6722         estimate D2E/DX2                !
 ! D3    D(2,1,5,4)             -0.0387         estimate D2E/DX2                !
 ! D4    D(2,1,5,12)           179.9696         estimate D2E/DX2                !
 ! D5    D(11,1,5,4)          -179.6789         estimate D2E/DX2                !
 ! D6    D(11,1,5,12)            0.3295         estimate D2E/DX2                !
 ! D7    D(2,1,11,13)           -3.8319         estimate D2E/DX2                !
 ! D8    D(5,1,11,13)          175.7915         estimate D2E/DX2                !
 ! D9    D(1,2,3,4)              0.0574         estimate D2E/DX2                !
 ! D10   D(1,2,3,6)           -179.9562         estimate D2E/DX2                !
 ! D11   D(2,3,4,5)             -0.0802         estimate D2E/DX2                !
 ! D12   D(2,3,4,7)            179.958          estimate D2E/DX2                !
 ! D13   D(6,3,4,5)            179.9349         estimate D2E/DX2                !
 ! D14   D(6,3,4,7)             -0.0269         estimate D2E/DX2                !
 ! D15   D(3,4,5,1)              0.0688         estimate D2E/DX2                !
 ! D16   D(3,4,5,12)          -179.9407         estimate D2E/DX2                !
 ! D17   D(7,4,5,1)           -179.969          estimate D2E/DX2                !
 ! D18   D(7,4,5,12)             0.0215         estimate D2E/DX2                !
 ! D19   D(8,10,14,13)          60.9215         estimate D2E/DX2                !
 ! D20   D(1,11,13,14)           2.3383         estimate D2E/DX2                !
 ! D21   D(1,11,13,15)         113.0271         estimate D2E/DX2                !
 ! D22   D(11,13,14,10)        -41.2513         estimate D2E/DX2                !
 ! D23   D(15,13,14,10)       -157.4997         estimate D2E/DX2                !
 --------------------------------------------------------------------------------
 Trust Radius=3.00D-01 FncErr=1.00D-07 GrdErr=1.00D-06 EigMax=2.50D+02 EigMin=1.00D-04
 Number of steps in this run=     69 maximum allowed number of steps=    100.
 GradGradGradGradGradGradGradGradGradGradGradGradGradGradGradGradGradGrad

                          Input orientation:                          
 ---------------------------------------------------------------------
 Center     Atomic      Atomic             Coordinates (Angstroms)
 Number     Number       Type             X           Y           Z
 ---------------------------------------------------------------------
      1          7           0       -1.194259    0.787878    0.002244
      2          7           0       -0.448135   -0.319007   -0.124436
      3          6           0       -1.318935   -1.327651   -0.090604
      4          6           0       -2.639870   -0.858852    0.058459
      5          6           0       -2.510369    0.517561    0.115286
      6          1           0       -0.966521   -2.347198   -0.174336
      7          1           0       -3.550551   -1.435603    0.116594
      8          6           0        2.203034   -0.898798    0.056532
      9          8           0        1.938777   -2.018674   -0.108648
     10          8           0        2.535325    0.204344    0.228485
     11          1           0       -0.718949    1.691182    0.006439
     12          1           0       -3.239097    1.307463    0.225041
     13          8           0        0.903228    2.761909   -0.022435
     14          1           0        1.560776    2.055160   -0.097613
     15          1           0        0.989295    3.272700   -0.838031
 ---------------------------------------------------------------------
                    Distance matrix (angstroms):
                    1          2          3          4          5
     1  N    0.000000
     2  N    1.340874   0.000000
     3  C    2.121233   1.332967   0.000000
     4  C    2.191956   2.264638   1.409561   0.000000
     5  C    1.348331   2.238330   2.206063   1.383659   0.000000
     6  H    3.148293   2.093985   1.081981   2.251547   3.267138
     7  H    3.241767   3.306035   2.243813   1.079519   2.212878
     8  C    3.793339   2.719854   3.551032   4.843069   4.921960
     9  O    4.207725   2.930267   3.330244   4.726216   5.126162
    10  O    3.781732   3.049505   4.159825   5.286013   5.056673
    11  H    1.020733   2.032567   3.079408   3.193011   2.144393
    12  H    2.121549   3.249155   3.275741   2.253829   1.080294
    13  O    2.880427   3.365803   4.654799   5.066557   4.087629
    14  H    3.034171   3.110163   4.442544   5.114807   4.357035
    15  H    3.412962   3.933927   5.200942   5.571737   4.554915
                    6          7          8          9         10
     6  H    0.000000
     7  H    2.755514   0.000000
     8  C    3.492455   5.778885   0.000000
     9  O    2.924551   5.524801   1.162428   0.000000
    10  O    4.351501   6.303954   1.164864   2.326228   0.000000
    11  H    4.049998   4.219821   3.904932   4.565061   3.584730
    12  H    4.322112   2.762820   5.874757   6.163190   5.878846
    13  O    5.442611   6.121649   3.885422   4.892215   3.044313
    14  H    5.076797   6.193301   3.026900   4.091348   2.116980
    15  H    5.987400   6.609813   4.435629   5.425141   3.597565
                   11         12         13         14         15
    11  H    0.000000
    12  H    2.558549   0.000000
    13  O    1.943900   4.397217   0.000000
    14  H    2.310942   4.868464   0.968254   0.000000
    15  H    2.476374   4.782424   0.966184   1.535322   0.000000
 Stoichiometry    C4H6N2O3
 Framework group  C1[X(C4H6N2O3)]
 Deg. of freedom    39
 Full point group                 C1      NOp   1
 Largest Abelian subgroup         C1      NOp   1
 Largest concise Abelian subgroup C1      NOp   1
                         Standard orientation:                         
 ---------------------------------------------------------------------
 Center     Atomic      Atomic             Coordinates (Angstroms)
 Number     Number       Type             X           Y           Z
 ---------------------------------------------------------------------
      1          7           0        1.194259    0.787878   -0.002244
      2          7           0        0.448135   -0.319007    0.124436
      3          6           0        1.318935   -1.327651    0.090604
      4          6           0        2.639870   -0.858852   -0.058459
      5          6           0        2.510369    0.517561   -0.115286
      6          1           0        0.966521   -2.347198    0.174336
      7          1           0        3.550551   -1.435603   -0.116594
      8          6           0       -2.203034   -0.898798   -0.056532
      9          8           0       -1.938777   -2.018674    0.108648
     10          8           0       -2.535325    0.204344   -0.228485
     11          1           0        0.718949    1.691182   -0.006439
     12          1           0        3.239097    1.307463   -0.225041
     13          8           0       -0.903228    2.761909    0.022435
     14          1           0       -1.560776    2.055160    0.097613
     15          1           0       -0.989295    3.272700    0.838031
 ---------------------------------------------------------------------
 Rotational constants (GHZ):           1.8712610           1.0804292           0.6893697
 Standard basis: 6-31+G(d,p) (6D, 7F)
 There are   201 symmetry adapted cartesian basis functions of A   symmetry.
 There are   201 symmetry adapted basis functions of A   symmetry.
   201 basis functions,   330 primitive gaussians,   201 cartesian basis functions
    34 alpha electrons       34 beta electrons
       nuclear repulsion energy       417.6486463050 Hartrees.
 NAtoms=   15 NActive=   15 NUniq=   15 SFac= 1.00D+00 NAtFMM=   60 NAOKFM=F Big=F
 Integral buffers will be    131072 words long.
 Raffenetti 2 integral format.
 Two-electron integral symmetry is turned on.
 ------------------------------------------------------------------------------
 Polarizable Continuum Model (PCM)
 =================================
 Model                : PCM.
 Atomic radii         : SMD-Coulomb.
 Polarization charges : Total charges.
 Charge compensation  : None.
 Solution method      : On-the-fly selection.
 Cavity type          : VdW (van der Waals Surface) (Alpha=1.000).
 Cavity algorithm     : GePol (No added spheres)
                        Default sphere list used, NSphG=   15.
                        Lebedev-Laikov grids with approx.  5.0 points / Ang**2.
                        Smoothing algorithm: York/Karplus (Gamma=1.0000).
                        Polarization charges: spherical gaussians, with
                                              point-specific exponents (IZeta= 3).
                        Self-potential: point-specific (ISelfS= 7).
                        Self-field    : sphere-specific E.n sum rule (ISelfD= 2).
 1st derivatives      : Analytical E(r).r(x)/FMM algorithm (CHGder, D1EAlg=3).
                        Cavity 1st derivative terms included.
 Solvent              : Water, Eps=  78.355300 Eps(inf)=   1.777849
 ------------------------------------------------------------------------------
 Spheres list:
 ISph  on   Nord     Re0    Alpha      Xe            Ye            Ze
    1   N      1    1.8900  1.000      1.194259      0.787878     -0.002244
    2   N      2    1.8900  1.000      0.448135     -0.319007      0.124436
    3   C      3    1.8500  1.000      1.318935     -1.327651      0.090604
    4   C      4    1.8500  1.000      2.639870     -0.858852     -0.058459
    5   C      5    1.8500  1.000      2.510369      0.517561     -0.115286
    6   H      6    1.2000  1.000      0.966521     -2.347198      0.174336
    7   H      7    1.2000  1.000      3.550551     -1.435603     -0.116594
    8   C      8    1.8500  1.000     -2.203034     -0.898798     -0.056532
    9   O      9    1.5200  1.000     -1.938777     -2.018674      0.108648
   10   O     10    1.5200  1.000     -2.535325      0.204344     -0.228485
   11   H     11    1.2000  1.000      0.718949      1.691182     -0.006439
   12   H     12    1.2000  1.000      3.239097      1.307463     -0.225041
   13   O     13    1.5200  1.000     -0.903228      2.761909      0.022435
   14   H     14    1.2000  1.000     -1.560776      2.055160      0.097613
   15   H     15    1.2000  1.000     -0.989295      3.272700      0.838031
 ------------------------------------------------------------------------------
 ------------------------------------------------------------------------------
 Atomic radii for non-electrostatic terms: SMD-CDS.
 ------------------------------------------------------------------------------
 Nuclear repulsion after PCM non-electrostatic terms =      417.6604978420 Hartrees.
 One-electron integrals computed using PRISM.
 NBasis=   201 RedAO= T EigKep=  4.58D-05  NBF=   201
 NBsUse=   201 1.00D-06 EigRej= -1.00D+00 NBFU=   201
 ExpMin= 4.38D-02 ExpMax= 5.48D+03 ExpMxC= 8.25D+02 IAcc=3 IRadAn=         5 AccDes= 0.00D+00
 Harris functional with IExCor= 1009 and IRadAn=       5 diagonalized for initial guess.
 HarFok:  IExCor= 1009 AccDes= 0.00D+00 IRadAn=         5 IDoV= 1 UseB2=F ITyADJ=14
 ICtDFT=  3500011 ScaDFX=  1.000000  1.000000  1.000000  1.000000
 FoFCou: FMM=F IPFlag=           0 FMFlag=      100000 FMFlg1=           0
         NFxFlg=           0 DoJE=T BraDBF=F KetDBF=T FulRan=T
         wScrn=  0.000000 ICntrl=       500 IOpCl=  0 I1Cent=   200000004 NGrid=           0
         NMat0=    1 NMatS0=      1 NMatT0=    0 NMatD0=    1 NMtDS0=    0 NMtDT0=    0
 Petite list used in FoFCou.
 Requested convergence on RMS density matrix=1.00D-08 within 128 cycles.
 Requested convergence on MAX density matrix=1.00D-06.
 Requested convergence on             energy=1.00D-06.
 No special actions if energy rises.
 Inv3:  Mode=1 IEnd=     5322672.
 Iteration    1 A*A^-1 deviation from unit magnitude is 6.00D-15 for   1321.
 Iteration    1 A*A^-1 deviation from orthogonality  is 3.12D-15 for   1316    228.
 Iteration    1 A^-1*A deviation from unit magnitude is 6.00D-15 for   1321.
 Iteration    1 A^-1*A deviation from orthogonality  is 1.06D-14 for    995    966.
 Error on total polarization charges =  0.04530
 SCF Done:  E(RM062X) =  -491.063518546     A.U. after   13 cycles
            NFock= 13  Conv=0.85D-08     -V/T= 2.0085
 SMD-CDS (non-electrostatic) energy       (kcal/mol) =       7.44
 (included in total energy above)

 **********************************************************************

            Population analysis using the SCF density.

 **********************************************************************

 Orbital symmetries:
       Occupied  (A) (A) (A) (A) (A) (A) (A) (A) (A) (A) (A) (A)
                 (A) (A) (A) (A) (A) (A) (A) (A) (A) (A) (A) (A)
                 (A) (A) (A) (A) (A) (A) (A) (A) (A) (A)
       Virtual   (A) (A) (A) (A) (A) (A) (A) (A) (A) (A) (A) (A)
                 (A) (A) (A) (A) (A) (A) (A) (A) (A) (A) (A) (A)
                 (A) (A) (A) (A) (A) (A) (A) (A) (A) (A) (A) (A)
                 (A) (A) (A) (A) (A) (A) (A) (A) (A) (A) (A) (A)
                 (A) (A) (A) (A) (A) (A) (A) (A) (A) (A) (A) (A)
                 (A) (A) (A) (A) (A) (A) (A) (A) (A) (A) (A) (A)
                 (A) (A) (A) (A) (A) (A) (A) (A) (A) (A) (A) (A)
                 (A) (A) (A) (A) (A) (A) (A) (A) (A) (A) (A) (A)
                 (A) (A) (A) (A) (A) (A) (A) (A) (A) (A) (A) (A)
                 (A) (A) (A) (A) (A) (A) (A) (A) (A) (A) (A) (A)
                 (A) (A) (A) (A) (A) (A) (A) (A) (A) (A) (A) (A)
                 (A) (A) (A) (A) (A) (A) (A) (A) (A) (A) (A) (A)
                 (A) (A) (A) (A) (A) (A) (A) (A) (A) (A) (A) (A)
                 (A) (A) (A) (A) (A) (A) (A) (A) (A) (A) (A)
 The electronic state is 1-A.
 Alpha  occ. eigenvalues --  -19.72754 -19.72683 -19.65277 -14.83096 -14.78775
 Alpha  occ. eigenvalues --  -10.75274 -10.58290 -10.56760 -10.54089  -1.28890
 Alpha  occ. eigenvalues --   -1.23929  -1.16376  -1.13437  -0.91532  -0.87474
 Alpha  occ. eigenvalues --   -0.68644  -0.67439  -0.66202  -0.62439  -0.61552
 Alpha  occ. eigenvalues --   -0.59911  -0.59793  -0.59172  -0.51845  -0.51164
 Alpha  occ. eigenvalues --   -0.48970  -0.47698  -0.45841  -0.44237  -0.44145
 Alpha  occ. eigenvalues --   -0.40438  -0.37024  -0.31916  -0.30712
 Alpha virt. eigenvalues --    0.01308   0.03219   0.04163   0.04508   0.04799
 Alpha virt. eigenvalues --    0.05526   0.05800   0.07230   0.07625   0.08513
 Alpha virt. eigenvalues --    0.08616   0.08941   0.09239   0.10165   0.11495
 Alpha virt. eigenvalues --    0.12529   0.13993   0.14420   0.15532   0.17405
 Alpha virt. eigenvalues --    0.17706   0.18066   0.18418   0.20314   0.21075
 Alpha virt. eigenvalues --    0.21498   0.22255   0.23467   0.24512   0.24828
 Alpha virt. eigenvalues --    0.26070   0.26329   0.27026   0.27332   0.28677
 Alpha virt. eigenvalues --    0.29279   0.29633   0.30919   0.31598   0.33257
 Alpha virt. eigenvalues --    0.33658   0.34983   0.35891   0.36644   0.37142
 Alpha virt. eigenvalues --    0.40901   0.42255   0.42430   0.45700   0.47172
 Alpha virt. eigenvalues --    0.51968   0.56553   0.72514   0.72919   0.74504
 Alpha virt. eigenvalues --    0.76249   0.76913   0.78346   0.79046   0.79713
 Alpha virt. eigenvalues --    0.89914   0.92763   0.94769   0.95347   0.96116
 Alpha virt. eigenvalues --    0.97438   0.99144   0.99214   1.03162   1.03739
 Alpha virt. eigenvalues --    1.04422   1.06866   1.09331   1.11896   1.14801
 Alpha virt. eigenvalues --    1.17333   1.19111   1.19541   1.21337   1.22596
 Alpha virt. eigenvalues --    1.24220   1.25825   1.26361   1.29347   1.30735
 Alpha virt. eigenvalues --    1.32132   1.33097   1.34564   1.37018   1.39527
 Alpha virt. eigenvalues --    1.41485   1.41635   1.45447   1.46783   1.48824
 Alpha virt. eigenvalues --    1.49944   1.51303   1.54560   1.54900   1.56157
 Alpha virt. eigenvalues --    1.58134   1.60675   1.63573   1.64661   1.66761
 Alpha virt. eigenvalues --    1.78862   1.83334   1.85155   1.88950   1.91938
 Alpha virt. eigenvalues --    1.93522   2.04925   2.07206   2.07656   2.08670
 Alpha virt. eigenvalues --    2.10889   2.15081   2.15519   2.19224   2.19515
 Alpha virt. eigenvalues --    2.20985   2.24264   2.26828   2.31007   2.33098
 Alpha virt. eigenvalues --    2.35061   2.38098   2.41680   2.45865   2.48274
 Alpha virt. eigenvalues --    2.53240   2.54484   2.57228   2.61574   2.62599
 Alpha virt. eigenvalues --    2.65929   2.67516   2.70671   2.72540   2.76740
 Alpha virt. eigenvalues --    2.80204   2.82688   2.90354   2.92277   2.96663
 Alpha virt. eigenvalues --    3.03670   3.06600   3.07389   3.15909   3.21728
 Alpha virt. eigenvalues --    3.27453   3.34852   3.37300   3.40681   3.46948
 Alpha virt. eigenvalues --    3.62275   3.64070   3.85414   4.10384   4.16145
 Alpha virt. eigenvalues --    4.21616   4.33678   4.43479   4.57022   4.66900
 Alpha virt. eigenvalues --    4.80214   4.94044
          Condensed to atoms (all electrons):
               1          2          3          4          5          6
     1  N    6.883738   0.009883   0.025513  -0.279259   0.280824   0.022800
     2  N    0.009883   7.217486   0.234618   0.018680  -0.007957  -0.071346
     3  C    0.025513   0.234618   5.419242   0.200414  -0.091114   0.422722
     4  C   -0.279259   0.018680   0.200414   5.387183   0.534706  -0.048269
     5  C    0.280824  -0.007957  -0.091114   0.534706   5.129661   0.002457
     6  H    0.022800  -0.071346   0.422722  -0.048269   0.002457   0.471621
     7  H    0.009406   0.001654  -0.004755   0.332981  -0.003607  -0.000616
     8  C    0.007693  -0.022876  -0.013863  -0.001980  -0.003300   0.000094
     9  O    0.005915  -0.007553  -0.018910   0.014989   0.000188   0.000008
    10  O   -0.004998   0.008164   0.004579  -0.003674  -0.002520  -0.000074
    11  H    0.306007  -0.027638   0.002406   0.000604  -0.014233  -0.000039
    12  H   -0.059699   0.016929   0.002079  -0.029564   0.403697  -0.000076
    13  O   -0.027554   0.012584   0.014507  -0.003539  -0.003891   0.000024
    14  H   -0.004025   0.003769   0.000196  -0.000009  -0.000956  -0.000001
    15  H    0.002471  -0.002394  -0.000417  -0.000135   0.000170  -0.000000
               7          8          9         10         11         12
     1  N    0.009406   0.007693   0.005915  -0.004998   0.306007  -0.059699
     2  N    0.001654  -0.022876  -0.007553   0.008164  -0.027638   0.016929
     3  C   -0.004755  -0.013863  -0.018910   0.004579   0.002406   0.002079
     4  C    0.332981  -0.001980   0.014989  -0.003674   0.000604  -0.029564
     5  C   -0.003607  -0.003300   0.000188  -0.002520  -0.014233   0.403697
     6  H   -0.000616   0.000094   0.000008  -0.000074  -0.000039  -0.000076
     7  H    0.460111   0.000063   0.000002   0.000002  -0.000074  -0.000361
     8  C    0.000063   4.319032   0.442147   0.422197   0.001235   0.000123
     9  O    0.000002   0.442147   8.059332  -0.112333   0.000152   0.000003
    10  O    0.000002   0.422197  -0.112333   8.121615   0.000236   0.000006
    11  H   -0.000074   0.001235   0.000152   0.000236   0.303597  -0.000820
    12  H   -0.000361   0.000123   0.000003   0.000006  -0.000820   0.440043
    13  O    0.000004  -0.007912  -0.000218   0.002735   0.001456  -0.000068
    14  H   -0.000000   0.000309   0.000089   0.000226  -0.001337  -0.000000
    15  H   -0.000000   0.000977  -0.000012  -0.000498  -0.001240   0.000000
              13         14         15
     1  N   -0.027554  -0.004025   0.002471
     2  N    0.012584   0.003769  -0.002394
     3  C    0.014507   0.000196  -0.000417
     4  C   -0.003539  -0.000009  -0.000135
     5  C   -0.003891  -0.000956   0.000170
     6  H    0.000024  -0.000001  -0.000000
     7  H    0.000004  -0.000000  -0.000000
     8  C   -0.007912   0.000309   0.000977
     9  O   -0.000218   0.000089  -0.000012
    10  O    0.002735   0.000226  -0.000498
    11  H    0.001456  -0.001337  -0.001240
    12  H   -0.000068  -0.000000   0.000000
    13  O    8.335463   0.273415   0.289430
    14  H    0.273415   0.293030  -0.017754
    15  H    0.289430  -0.017754   0.288693
 Mulliken charges:
               1
     1  N   -0.178715
     2  N   -0.384004
     3  C   -0.197219
     4  C   -0.123128
     5  C   -0.224125
     6  H    0.200693
     7  H    0.205190
     8  C    0.856059
     9  O   -0.383801
    10  O   -0.435663
    11  H    0.429687
    12  H    0.227706
    13  O   -0.886437
    14  H    0.453048
    15  H    0.440708
 Sum of Mulliken charges =  -0.00000
 Mulliken charges with hydrogens summed into heavy atoms:
               1
     1  N    0.250971
     2  N   -0.384004
     3  C    0.003475
     4  C    0.082063
     5  C    0.003581
     8  C    0.856059
     9  O   -0.383801
    10  O   -0.435663
    13  O    0.007319
 Electronic spatial extent (au):  <R**2>=           1521.1799
 Charge=              0.0000 electrons
 Dipole moment (field-independent basis, Debye):
    X=              0.7526    Y=              2.1444    Z=              1.6782  Tot=              2.8250
 Quadrupole moment (field-independent basis, Debye-Ang):
   XX=            -43.4378   YY=            -48.4057   ZZ=            -53.5499
   XY=              0.2535   XZ=             -3.1295   YZ=              7.0102
 Traceless Quadrupole moment (field-independent basis, Debye-Ang):
   XX=              5.0267   YY=              0.0588   ZZ=             -5.0854
   XY=              0.2535   XZ=             -3.1295   YZ=              7.0102
 Octapole moment (field-independent basis, Debye-Ang**2):
  XXX=             -1.9354  YYY=             24.7494  ZZZ=              2.2947  XYY=              5.3252
  XXY=              7.6732  XXZ=              0.8879  XZZ=            -16.2591  YZZ=              7.8314
  YYZ=             21.8356  XYZ=             -9.4490
 Hexadecapole moment (field-independent basis, Debye-Ang**3):
 XXXX=          -1074.7435 YYYY=           -637.0200 ZZZZ=            -61.3599 XXXY=             22.7572
 XXXZ=            -18.3235 YYYX=            -28.4083 YYYZ=             77.7558 ZZZX=             -0.6684
 ZZZY=              9.2675 XXYY=           -283.8938 XXZZ=           -219.7901 YYZZ=           -112.3901
 XXYZ=             10.4704 YYXZ=            -22.2092 ZZXY=              2.2717
 N-N= 4.176604978420D+02 E-N=-1.984038235585D+03  KE= 4.869333629877D+02
 D1PCM: PCM CHGder 1st derivatives, ID1Alg=3 FixD1E=F DoIter=F DoCFld=F I1PDM=0.
 Calling FoFJK, ICntrl=      2127 FMM=F ISym2X=0 I1Cent= 0 IOpClX= 0 NMat=1 NMatS=1 NMatT=0.
 ***** Axes restored to original set *****
 -------------------------------------------------------------------
 Center     Atomic                   Forces (Hartrees/Bohr)
 Number     Number              X              Y              Z
 -------------------------------------------------------------------
      1        7           0.000115355   -0.000091368    0.000104227
      2        7          -0.000143378    0.000135257    0.000013025
      3        6          -0.000025085   -0.000019557   -0.000037506
      4        6           0.000007610   -0.000003725    0.000029592
      5        6          -0.000036798    0.000060384   -0.000079836
      6        1           0.000025738    0.000001161    0.000002197
      7        1           0.000004435   -0.000005980    0.000006022
      8        6          -0.000030100   -0.000040847    0.000015721
      9        8           0.000060178   -0.000025231    0.000006302
     10        8           0.000017782    0.000054070   -0.000046756
     11        1          -0.000029443   -0.000065351   -0.000042565
     12        1           0.000005477   -0.000001196    0.000012674
     13        8          -0.000020791   -0.000043913   -0.000090978
     14        1           0.000074012   -0.000001065    0.000146607
     15        1          -0.000024994    0.000047360   -0.000038726
 -------------------------------------------------------------------
 Cartesian Forces:  Max     0.000146607 RMS     0.000057485

 GradGradGradGradGradGradGradGradGradGradGradGradGradGradGradGradGradGrad
 Berny optimization.
 FormGI is forming the generalized inverse of G from B-inverse, IUseBI=4.
 Internal  Forces:  Max     0.000482010 RMS     0.000105148
 Search for a local minimum.
 Step number   1 out of a maximum of   69
 All quantities printed in internal units (Hartrees-Bohrs-Radians)
 Mixed Optimization -- En-DIIS/RFO-DIIS
 Second derivative matrix not updated -- first step.
 ITU=  0
     Eigenvalues ---    0.00230   0.00230   0.00754   0.01448   0.01909
     Eigenvalues ---    0.02084   0.02167   0.02230   0.02300   0.02337
     Eigenvalues ---    0.03570   0.04732   0.04802   0.04802   0.07598
     Eigenvalues ---    0.12482   0.16000   0.16000   0.16000   0.16000
     Eigenvalues ---    0.16000   0.16000   0.22000   0.22919   0.25000
     Eigenvalues ---    0.25000   0.35756   0.35959   0.36053   0.40821
     Eigenvalues ---    0.44221   0.45464   0.51634   0.53735   0.54164
     Eigenvalues ---    0.54801   0.57459   1.24663   1.26218
 RFO step:  Lambda=-5.10402165D-06 EMin= 2.30000000D-03
 Linear search not attempted -- first point.
 Iteration  1 RMS(Cart)=  0.01386934 RMS(Int)=  0.00003745
 Iteration  2 RMS(Cart)=  0.00008931 RMS(Int)=  0.00000048
 Iteration  3 RMS(Cart)=  0.00000000 RMS(Int)=  0.00000048
 Variable       Old X    -DE/DX   Delta X   Delta X   Delta X     New X
                                 (Linear)    (Quad)   (Total)
    R1        2.53388  -0.00017   0.00000  -0.00032  -0.00032   2.53356
    R2        2.54798   0.00002   0.00000   0.00003   0.00003   2.54800
    R3        1.92891  -0.00005   0.00000  -0.00011  -0.00011   1.92879
    R4        2.51894  -0.00000   0.00000  -0.00001  -0.00001   2.51894
    R5        2.66368  -0.00001   0.00000  -0.00000  -0.00000   2.66368
    R6        2.04465   0.00001   0.00000   0.00002   0.00002   2.04467
    R7        2.61474   0.00001   0.00000   0.00004   0.00004   2.61478
    R8        2.04000  -0.00000   0.00000  -0.00000  -0.00000   2.03999
    R9        2.04146  -0.00000   0.00000  -0.00001  -0.00001   2.04145
   R10        2.19667   0.00001   0.00000   0.00001   0.00001   2.19668
   R11        2.20127   0.00006   0.00000   0.00004   0.00004   2.20132
   R12        4.00051   0.00003   0.00000   0.00085   0.00085   4.00136
   R13        3.67344   0.00006   0.00000   0.00120   0.00120   3.67464
   R14        1.82973   0.00009   0.00000   0.00016   0.00016   1.82990
   R15        1.82582   0.00005   0.00000   0.00009   0.00009   1.82592
    A1        1.96662   0.00002   0.00000   0.00003   0.00003   1.96666
    A2        2.06213   0.00007   0.00000   0.00050   0.00050   2.06263
    A3        2.25441  -0.00009   0.00000  -0.00052  -0.00052   2.25389
    A4        1.83251   0.00004   0.00000   0.00010   0.00010   1.83260
    A5        1.94252  -0.00002   0.00000  -0.00007  -0.00007   1.94246
    A6        2.09241  -0.00001   0.00000  -0.00012  -0.00012   2.09230
    A7        2.24825   0.00003   0.00000   0.00018   0.00018   2.24843
    A8        1.82087  -0.00002   0.00000  -0.00002  -0.00002   1.82085
    A9        2.23771   0.00000   0.00000  -0.00002  -0.00002   2.23768
   A10        2.22460   0.00002   0.00000   0.00004   0.00004   2.22465
   A11        1.86225  -0.00002   0.00000  -0.00005  -0.00005   1.86221
   A12        2.11808   0.00000   0.00000  -0.00000  -0.00000   2.11808
   A13        2.30285   0.00001   0.00000   0.00005   0.00005   2.30290
   A14        2.31026   0.00024   0.00000   0.00152   0.00152   2.31178
   A15        2.63825   0.00033   0.00000   0.00133   0.00133   2.63957
   A16        1.73738   0.00048   0.00000   0.00336   0.00336   1.74074
   A17        1.95851  -0.00009   0.00000  -0.00014  -0.00014   1.95837
   A18        1.83366  -0.00003   0.00000   0.00051   0.00051   1.83417
   A19        2.78997   0.00035   0.00000   0.00142   0.00142   2.79139
   A20        3.20198   0.00014   0.00000   0.00290   0.00290   3.20488
   A21        3.13859   0.00000   0.00000   0.00006   0.00006   3.13865
    D1       -0.00020  -0.00001   0.00000  -0.00047  -0.00047  -0.00067
    D2        3.13587   0.00003   0.00000   0.00150   0.00150   3.13737
    D3       -0.00068   0.00002   0.00000   0.00105   0.00105   0.00038
    D4        3.14106   0.00001   0.00000   0.00040   0.00040   3.14146
    D5       -3.13599  -0.00002   0.00000  -0.00119  -0.00119  -3.13718
    D6        0.00575  -0.00004   0.00000  -0.00184  -0.00184   0.00391
    D7       -0.06688  -0.00004   0.00000  -0.00324  -0.00324  -0.07012
    D8        3.06814   0.00001   0.00000  -0.00089  -0.00089   3.06725
    D9        0.00100  -0.00001   0.00000  -0.00030  -0.00030   0.00070
   D10       -3.14083   0.00000   0.00000   0.00014   0.00014  -3.14069
   D11       -0.00140   0.00002   0.00000   0.00091   0.00091  -0.00048
   D12        3.14086   0.00001   0.00000   0.00029   0.00029   3.14115
   D13        3.14046   0.00001   0.00000   0.00042   0.00042   3.14088
   D14       -0.00047  -0.00000   0.00000  -0.00020  -0.00020  -0.00067
   D15        0.00120  -0.00002   0.00000  -0.00114  -0.00114   0.00006
   D16       -3.14056  -0.00001   0.00000  -0.00038  -0.00038  -3.14094
   D17       -3.14105  -0.00001   0.00000  -0.00052  -0.00052  -3.14157
   D18        0.00037   0.00001   0.00000   0.00023   0.00023   0.00061
   D19        1.06328   0.00003   0.00000   0.01323   0.01323   1.07652
   D20        0.04081  -0.00011   0.00000  -0.01113  -0.01113   0.02968
   D21        1.97269   0.00007   0.00000  -0.00892  -0.00892   1.96378
   D22       -0.71997   0.00003   0.00000  -0.00021  -0.00020  -0.72017
   D23       -2.74889  -0.00005   0.00000  -0.00151  -0.00151  -2.75040
         Item               Value     Threshold  Converged?
 Maximum Force            0.000482     0.000450     NO 
 RMS     Force            0.000105     0.000300     YES
 Maximum Displacement     0.061603     0.001800     NO 
 RMS     Displacement     0.013937     0.001200     NO 
 Predicted change in Energy=-2.552502D-06
 GradGradGradGradGradGradGradGradGradGradGradGradGradGradGradGradGradGrad

                          Input orientation:                          
 ---------------------------------------------------------------------
 Center     Atomic      Atomic             Coordinates (Angstroms)
 Number     Number       Type             X           Y           Z
 ---------------------------------------------------------------------
      1          7           0       -1.198222    0.786809    0.001656
      2          7           0       -0.455874   -0.321219   -0.135002
      3          6           0       -1.328938   -1.327873   -0.100380
      4          6           0       -2.647655   -0.856484    0.059736
      5          6           0       -2.514358    0.519388    0.121262
      6          1           0       -0.979460   -2.347846   -0.191068
      7          1           0       -3.559363   -1.431251    0.121304
      8          6           0        2.221811   -0.897067    0.065139
      9          8           0        1.971376   -2.019649   -0.103211
     10          8           0        2.543682    0.208628    0.240635
     11          1           0       -0.721170    1.689129    0.005795
     12          1           0       -3.240346    1.310662    0.238965
     13          8           0        0.902040    2.759292   -0.028071
     14          1           0        1.561827    2.053926   -0.097523
     15          1           0        0.988399    3.265968   -0.846259
 ---------------------------------------------------------------------
                    Distance matrix (angstroms):
                    1          2          3          4          5
     1  N    0.000000
     2  N    1.340702   0.000000
     3  C    2.121174   1.332964   0.000000
     4  C    2.191950   2.264583   1.409560   0.000000
     5  C    1.348346   2.238225   2.206064   1.383682   0.000000
     6  H    3.148184   2.093920   1.081991   2.251652   3.267184
     7  H    3.241774   3.305981   2.243798   1.079518   2.212922
     8  C    3.812623   2.746207   3.580615   4.869637   4.943763
     9  O    4.234803   2.962637   3.372037   4.766020   5.159352
    10  O    3.793843   3.069067   4.180228   5.302562   5.068983
    11  H    1.020674   2.032660   3.079441   3.192867   2.144097
    12  H    2.121558   3.249026   3.275745   2.253870   1.080290
    13  O    2.881436   3.368221   4.656975   5.067730   4.087940
    14  H    3.038633   3.116703   4.448943   5.120054   4.360959
    15  H    3.412697   3.931885   5.199016   5.571026   4.555119
                    6          7          8          9         10
     6  H    0.000000
     7  H    2.755653   0.000000
     8  C    3.523994   5.806073   0.000000
     9  O    2.970331   5.566480   1.162433   0.000000
    10  O    4.374295   6.320649   1.164887   2.326153   0.000000
    11  H    4.050017   4.219651   3.918299   4.584400   3.592533
    12  H    4.322177   2.762916   5.894017   6.194361   5.888077
    13  O    5.445133   6.122670   3.888373   4.897694   3.045172
    14  H    5.083551   6.198462   3.028267   4.094116   2.117431
    15  H    5.984702   6.609250   4.436531   5.427349   3.598273
                   11         12         13         14         15
    11  H    0.000000
    12  H    2.558095   0.000000
    13  O    1.944533   4.396499   0.000000
    14  H    2.314266   4.870988   0.968340   0.000000
    15  H    2.476902   4.783641   0.966234   1.535731   0.000000
 Stoichiometry    C4H6N2O3
 Framework group  C1[X(C4H6N2O3)]
 Deg. of freedom    39
 Full point group                 C1      NOp   1
 Largest Abelian subgroup         C1      NOp   1
 Largest concise Abelian subgroup C1      NOp   1
                         Standard orientation:                         
 ---------------------------------------------------------------------
 Center     Atomic      Atomic             Coordinates (Angstroms)
 Number     Number       Type             X           Y           Z
 ---------------------------------------------------------------------
      1          7           0        1.204945    0.780643   -0.003166
      2          7           0        0.457313   -0.323614    0.135209
      3          6           0        1.325324   -1.334604    0.099885
      4          6           0        2.646126   -0.869851   -0.062426
      5          6           0        2.519563    0.506631   -0.124542
      6          1           0        0.970928   -2.352780    0.191666
      7          1           0        3.554883   -1.449165   -0.124998
      8          6           0       -2.223483   -0.886290   -0.060691
      9          8           0       -1.978371   -2.010006    0.107933
     10          8           0       -2.540125    0.220888   -0.236348
     11          1           0        0.732367    1.685314   -0.007123
     12          1           0        3.249291    1.294229   -0.243757
     13          8           0       -0.885467    2.763532    0.028504
     14          1           0       -1.548640    2.061485    0.099322
     15          1           0       -0.968115    3.271090    0.846527
 ---------------------------------------------------------------------
 Rotational constants (GHZ):           1.8722478           1.0683216           0.6849078
 Standard basis: 6-31+G(d,p) (6D, 7F)
 There are   201 symmetry adapted cartesian basis functions of A   symmetry.
 There are   201 symmetry adapted basis functions of A   symmetry.
   201 basis functions,   330 primitive gaussians,   201 cartesian basis functions
    34 alpha electrons       34 beta electrons
       nuclear repulsion energy       416.8888480738 Hartrees.
 NAtoms=   15 NActive=   15 NUniq=   15 SFac= 1.00D+00 NAtFMM=   60 NAOKFM=F Big=F
 Integral buffers will be    131072 words long.
 Raffenetti 2 integral format.
 Two-electron integral symmetry is turned on.
 ------------------------------------------------------------------------------
 Polarizable Continuum Model (PCM)
 =================================
 Model                : PCM.
 Atomic radii         : SMD-Coulomb.
 Polarization charges : Total charges.
 Charge compensation  : None.
 Solution method      : On-the-fly selection.
 Cavity type          : VdW (van der Waals Surface) (Alpha=1.000).
 Cavity algorithm     : GePol (No added spheres)
                        Default sphere list used, NSphG=   15.
                        Lebedev-Laikov grids with approx.  5.0 points / Ang**2.
                        Smoothing algorithm: York/Karplus (Gamma=1.0000).
                        Polarization charges: spherical gaussians, with
                                              point-specific exponents (IZeta= 3).
                        Self-potential: point-specific (ISelfS= 7).
                        Self-field    : sphere-specific E.n sum rule (ISelfD= 2).
 1st derivatives      : Analytical E(r).r(x)/FMM algorithm (CHGder, D1EAlg=3).
                        Cavity 1st derivative terms included.
 Solvent              : Water, Eps=  78.355300 Eps(inf)=   1.777849
 ------------------------------------------------------------------------------
 Spheres list:
 ISph  on   Nord     Re0    Alpha      Xe            Ye            Ze
    1   N      1    1.8900  1.000      1.204945      0.780643     -0.003166
    2   N      2    1.8900  1.000      0.457313     -0.323614      0.135209
    3   C      3    1.8500  1.000      1.325324     -1.334604      0.099885
    4   C      4    1.8500  1.000      2.646126     -0.869851     -0.062426
    5   C      5    1.8500  1.000      2.519563      0.506631     -0.124542
    6   H      6    1.2000  1.000      0.970928     -2.352780      0.191666
    7   H      7    1.2000  1.000      3.554883     -1.449165     -0.124998
    8   C      8    1.8500  1.000     -2.223483     -0.886290     -0.060691
    9   O      9    1.5200  1.000     -1.978371     -2.010006      0.107933
   10   O     10    1.5200  1.000     -2.540125      0.220888     -0.236348
   11   H     11    1.2000  1.000      0.732367      1.685314     -0.007123
   12   H     12    1.2000  1.000      3.249291      1.294229     -0.243757
   13   O     13    1.5200  1.000     -0.885467      2.763532      0.028504
   14   H     14    1.2000  1.000     -1.548640      2.061485      0.099322
   15   H     15    1.2000  1.000     -0.968115      3.271090      0.846527
 ------------------------------------------------------------------------------
 ------------------------------------------------------------------------------
 Atomic radii for non-electrostatic terms: SMD-CDS.
 ------------------------------------------------------------------------------
 Nuclear repulsion after PCM non-electrostatic terms =      416.9007246483 Hartrees.
 One-electron integrals computed using PRISM.
 NBasis=   201 RedAO= T EigKep=  4.69D-05  NBF=   201
 NBsUse=   201 1.00D-06 EigRej= -1.00D+00 NBFU=   201
 Initial guess from the checkpoint file:  "/scratch/gongke2021/bizuo/Gau-19806.chk"
 B after Tr=     0.000000   -0.000000   -0.000000
         Rot=    0.999995   -0.000137   -0.000021    0.003107 Ang=  -0.36 deg.
 ExpMin= 4.38D-02 ExpMax= 5.48D+03 ExpMxC= 8.25D+02 IAcc=2 IRadAn=         4 AccDes= 0.00D+00
 Harris functional with IExCor= 1009 and IRadAn=       4 diagonalized for initial guess.
 HarFok:  IExCor= 1009 AccDes= 0.00D+00 IRadAn=         4 IDoV= 1 UseB2=F ITyADJ=14
 ICtDFT=  3500011 ScaDFX=  1.000000  1.000000  1.000000  1.000000
 FoFCou: FMM=F IPFlag=           0 FMFlag=      100000 FMFlg1=           0
         NFxFlg=           0 DoJE=T BraDBF=F KetDBF=T FulRan=T
         wScrn=  0.000000 ICntrl=       500 IOpCl=  0 I1Cent=   200000004 NGrid=           0
         NMat0=    1 NMatS0=      1 NMatT0=    0 NMatD0=    1 NMtDS0=    0 NMtDT0=    0
 Petite list used in FoFCou.
 Requested convergence on RMS density matrix=1.00D-08 within 128 cycles.
 Requested convergence on MAX density matrix=1.00D-06.
 Requested convergence on             energy=1.00D-06.
 No special actions if energy rises.
 Inv3:  Mode=1 IEnd=     5330667.
 Iteration    1 A*A^-1 deviation from unit magnitude is 5.11D-15 for   1306.
 Iteration    1 A*A^-1 deviation from orthogonality  is 4.30D-15 for   1316    228.
 Iteration    1 A^-1*A deviation from unit magnitude is 4.66D-15 for   1306.
 Iteration    1 A^-1*A deviation from orthogonality  is 2.02D-14 for   1245   1213.
 Error on total polarization charges =  0.04532
 SCF Done:  E(RM062X) =  -491.063503138     A.U. after   10 cycles
            NFock= 10  Conv=0.86D-08     -V/T= 2.0085
 SMD-CDS (non-electrostatic) energy       (kcal/mol) =       7.45
 (included in total energy above)
 D1PCM: PCM CHGder 1st derivatives, ID1Alg=3 FixD1E=F DoIter=F DoCFld=F I1PDM=0.
 Calling FoFJK, ICntrl=      2127 FMM=F ISym2X=0 I1Cent= 0 IOpClX= 0 NMat=1 NMatS=1 NMatT=0.
 ***** Axes restored to original set *****
 -------------------------------------------------------------------
 Center     Atomic                   Forces (Hartrees/Bohr)
 Number     Number              X              Y              Z
 -------------------------------------------------------------------
      1        7           0.000018079   -0.000006624   -0.000002991
      2        7           0.000532826   -0.000177460    0.000006788
      3        6           0.000003629    0.000001970    0.000072379
      4        6          -0.000020814    0.000015856   -0.000078245
      5        6          -0.000060051    0.000000382    0.000051172
      6        1           0.000014502    0.000009161    0.000012211
      7        1          -0.000003207    0.000000654   -0.000008545
      8        6           0.000606056   -0.000053945    0.000023263
      9        8          -0.000650599    0.000213951   -0.000019411
     10        8          -0.000489299    0.000045780   -0.000072972
     11        1           0.000047804   -0.000052183   -0.000027918
     12        1           0.000009152   -0.000008453    0.000010787
     13        8           0.000005899   -0.000083080   -0.000078390
     14        1          -0.000024511    0.000109589    0.000104158
     15        1           0.000010536   -0.000015597    0.000007715
 -------------------------------------------------------------------
 Cartesian Forces:  Max     0.000650599 RMS     0.000180411

 GradGradGradGradGradGradGradGradGradGradGradGradGradGradGradGradGradGrad
 Berny optimization.
 Using GEDIIS/GDIIS optimizer.
 FormGI is forming the generalized inverse of G from B-inverse, IUseBI=4.
 Internal  Forces:  Max     0.003196120 RMS     0.000660318
 Search for a local minimum.
 Step number   2 out of a maximum of   69
 All quantities printed in internal units (Hartrees-Bohrs-Radians)
 Mixed Optimization -- En-DIIS/RFO-DIIS
 Swapping is turned off.
 Update second derivatives using D2CorX and points    1    2
 DE=  1.54D-05 DEPred=-2.55D-06 R=-6.04D+00
 Trust test=-6.04D+00 RLast= 2.08D-02 DXMaxT set to 1.50D-01
 ITU= -1  0
     Eigenvalues ---    0.00227   0.00304   0.00769   0.01472   0.01864
     Eigenvalues ---    0.02084   0.02157   0.02230   0.02300   0.02332
     Eigenvalues ---    0.03607   0.04724   0.04802   0.05607   0.08079
     Eigenvalues ---    0.12521   0.15958   0.16000   0.16000   0.16000
     Eigenvalues ---    0.16000   0.21397   0.21993   0.22928   0.24981
     Eigenvalues ---    0.35755   0.35958   0.36053   0.40797   0.44139
     Eigenvalues ---    0.45420   0.51561   0.52653   0.54102   0.54494
     Eigenvalues ---    0.57413   0.92226   1.24806   1.26256
 En-DIIS/RFO-DIIS/Sim-DIIS IScMMF=       -3 using points:     2    1
 RFO step:  Lambda=-3.12064345D-05.
 DidBck=T Rises=T En-DIIS coefs:    0.30829    0.69171
 Iteration  1 RMS(Cart)=  0.01127497 RMS(Int)=  0.00004072
 Iteration  2 RMS(Cart)=  0.00007759 RMS(Int)=  0.00000022
 Iteration  3 RMS(Cart)=  0.00000001 RMS(Int)=  0.00000022
 Variable       Old X    -DE/DX   Delta X   Delta X   Delta X     New X
                                 (Linear)    (Quad)   (Total)
    R1        2.53356   0.00034   0.00022  -0.00018   0.00004   2.53360
    R2        2.54800  -0.00002  -0.00002   0.00002  -0.00000   2.54800
    R3        1.92879  -0.00009   0.00008  -0.00011  -0.00004   1.92876
    R4        2.51894   0.00001   0.00000  -0.00000   0.00000   2.51894
    R5        2.66368   0.00011   0.00000   0.00003   0.00003   2.66371
    R6        2.04467  -0.00001  -0.00001   0.00001   0.00000   2.04467
    R7        2.61478   0.00002  -0.00003   0.00004   0.00001   2.61479
    R8        2.03999   0.00000   0.00000  -0.00000   0.00000   2.03999
    R9        2.04145  -0.00001   0.00001  -0.00001  -0.00000   2.04145
   R10        2.19668  -0.00006  -0.00001   0.00000  -0.00001   2.19667
   R11        2.20132  -0.00014  -0.00003   0.00002  -0.00001   2.20131
   R12        4.00136  -0.00044  -0.00059  -0.00086  -0.00145   3.99991
   R13        3.67464  -0.00033  -0.00083   0.00007  -0.00076   3.67388
   R14        1.82990  -0.00061  -0.00011  -0.00001  -0.00013   1.82977
   R15        1.82592  -0.00002  -0.00007   0.00007   0.00001   1.82593
    A1        1.96666   0.00012  -0.00002   0.00010   0.00008   1.96674
    A2        2.06263  -0.00046  -0.00034   0.00004  -0.00030   2.06233
    A3        2.25389   0.00034   0.00036  -0.00014   0.00022   2.25412
    A4        1.83260  -0.00017  -0.00007   0.00000  -0.00007   1.83254
    A5        1.94246   0.00006   0.00005  -0.00002   0.00002   1.94248
    A6        2.09230  -0.00005   0.00008  -0.00012  -0.00004   2.09226
    A7        2.24843  -0.00002  -0.00013   0.00015   0.00002   2.24845
    A8        1.82085   0.00007   0.00001   0.00001   0.00002   1.82088
    A9        2.23768  -0.00003   0.00002  -0.00003  -0.00001   2.23767
   A10        2.22465  -0.00004  -0.00003   0.00002  -0.00001   2.22464
   A11        1.86221  -0.00008   0.00003  -0.00009  -0.00006   1.86215
   A12        2.11808   0.00004   0.00000   0.00002   0.00003   2.11811
   A13        2.30290   0.00004  -0.00003   0.00007   0.00003   2.30293
   A14        2.31178  -0.00162  -0.00105  -0.00006  -0.00111   2.31067
   A15        2.63957  -0.00179  -0.00092   0.00016  -0.00076   2.63882
   A16        1.74074  -0.00320  -0.00233  -0.00005  -0.00238   1.73837
   A17        1.95837   0.00058   0.00009   0.00009   0.00018   1.95855
   A18        1.83417   0.00045  -0.00035   0.00033  -0.00002   1.83415
   A19        2.79139  -0.00220  -0.00098   0.00003  -0.00095   2.79043
   A20        3.20488  -0.00150  -0.00201  -0.00163  -0.00363   3.20125
   A21        3.13865  -0.00001  -0.00004   0.00003  -0.00001   3.13864
    D1       -0.00067   0.00002   0.00032  -0.00026   0.00007  -0.00060
    D2        3.13737  -0.00003  -0.00104   0.00099  -0.00005   3.13732
    D3        0.00038  -0.00005  -0.00073   0.00057  -0.00016   0.00021
    D4        3.14146  -0.00003  -0.00027   0.00015  -0.00013   3.14133
    D5       -3.13718   0.00001   0.00082  -0.00085  -0.00003  -3.13720
    D6        0.00391   0.00003   0.00128  -0.00127   0.00001   0.00391
    D7       -0.07012   0.00016   0.00224  -0.00026   0.00198  -0.06814
    D8        3.06725   0.00010   0.00062   0.00122   0.00184   3.06909
    D9        0.00070   0.00002   0.00021  -0.00016   0.00005   0.00075
   D10       -3.14069   0.00000  -0.00010   0.00011   0.00002  -3.14067
   D11       -0.00048  -0.00004  -0.00063   0.00048  -0.00015  -0.00063
   D12        3.14115  -0.00001  -0.00020   0.00019  -0.00001   3.14114
   D13        3.14088  -0.00003  -0.00029   0.00019  -0.00011   3.14077
   D14       -0.00067   0.00001   0.00014  -0.00011   0.00003  -0.00064
   D15        0.00006   0.00005   0.00079  -0.00061   0.00018   0.00024
   D16       -3.14094   0.00003   0.00027  -0.00013   0.00014  -3.14080
   D17       -3.14157   0.00002   0.00036  -0.00031   0.00005  -3.14152
   D18        0.00061  -0.00000  -0.00016   0.00017   0.00001   0.00061
   D19        1.07652  -0.00038  -0.00915  -0.00988  -0.01904   1.05748
   D20        0.02968   0.00061   0.00770   0.00059   0.00829   0.03797
   D21        1.96378  -0.00029   0.00617   0.00096   0.00713   1.97091
   D22       -0.72017  -0.00001   0.00014   0.00126   0.00140  -0.71877
   D23       -2.75040   0.00044   0.00105   0.00108   0.00213  -2.74827
         Item               Value     Threshold  Converged?
 Maximum Force            0.003196     0.000450     NO 
 RMS     Force            0.000660     0.000300     NO 
 Maximum Displacement     0.056208     0.001800     NO 
 RMS     Displacement     0.011227     0.001200     NO 
 Predicted change in Energy=-1.561045D-05
 GradGradGradGradGradGradGradGradGradGradGradGradGradGradGradGradGradGrad

                          Input orientation:                          
 ---------------------------------------------------------------------
 Center     Atomic      Atomic             Coordinates (Angstroms)
 Number     Number       Type             X           Y           Z
 ---------------------------------------------------------------------
      1          7           0       -1.194538    0.787111    0.002946
      2          7           0       -0.449603   -0.319869   -0.128230
      3          6           0       -1.321045   -1.327980   -0.095100
      4          6           0       -2.641275   -0.858588    0.058412
      5          6           0       -2.510690    0.517647    0.117700
      6          1           0       -0.969365   -2.347515   -0.182121
      7          1           0       -3.552210   -1.434853    0.117365
      8          6           0        2.206529   -0.897852    0.060093
      9          8           0        1.941632   -2.018261   -0.100391
     10          8           0        2.538653    0.206099    0.227239
     11          1           0       -0.718880    1.690143    0.007160
     12          1           0       -3.238542    1.307877    0.230790
     13          8           0        0.903253    2.761290   -0.024061
     14          1           0        1.561604    2.055226   -0.098898
     15          1           0        0.988224    3.271937   -0.839926
 ---------------------------------------------------------------------
                    Distance matrix (angstroms):
                    1          2          3          4          5
     1  N    0.000000
     2  N    1.340724   0.000000
     3  C    2.121139   1.332966   0.000000
     4  C    2.191905   2.264614   1.409575   0.000000
     5  C    1.348345   2.238301   2.206100   1.383687   0.000000
     6  H    3.148148   2.093898   1.081991   2.251675   3.267220
     7  H    3.241734   3.306006   2.243805   1.079519   2.212921
     8  C    3.796001   2.724806   3.557088   4.847963   4.925353
     9  O    4.209081   2.933141   3.334903   4.730021   5.128505
    10  O    3.784785   3.054943   4.165882   5.290909   5.060131
    11  H    1.020654   2.032484   3.079306   3.192845   2.144189
    12  H    2.121570   3.249097   3.275781   2.253888   1.080288
    13  O    2.880771   3.366692   4.655608   5.066952   4.087669
    14  H    3.035590   3.112377   4.444745   5.116566   4.358284
    15  H    3.413098   3.933818   5.200647   5.571491   4.554729
                    6          7          8          9         10
     6  H    0.000000
     7  H    2.755672   0.000000
     8  C    3.499500   5.784006   0.000000
     9  O    2.930699   5.529022   1.162430   0.000000
    10  O    4.358293   6.308995   1.164883   2.326275   0.000000
    11  H    4.049847   4.219657   3.906218   4.565322   3.586411
    12  H    4.322216   2.762938   5.877344   6.164988   5.881319
    13  O    5.443490   6.121991   3.885219   4.891643   3.044123
    14  H    5.079061   6.195040   3.026858   4.091176   2.116662
    15  H    5.986912   6.609525   4.436377   5.426058   3.597504
                   11         12         13         14         15
    11  H    0.000000
    12  H    2.558287   0.000000
    13  O    1.944132   4.396797   0.000000
    14  H    2.311957   4.869150   0.968274   0.000000
    15  H    2.476657   4.782208   0.966238   1.535667   0.000000
 Stoichiometry    C4H6N2O3
 Framework group  C1[X(C4H6N2O3)]
 Deg. of freedom    39
 Full point group                 C1      NOp   1
 Largest Abelian subgroup         C1      NOp   1
 Largest concise Abelian subgroup C1      NOp   1
                         Standard orientation:                         
 ---------------------------------------------------------------------
 Center     Atomic      Atomic             Coordinates (Angstroms)
 Number     Number       Type             X           Y           Z
 ---------------------------------------------------------------------
      1          7           0        1.194786    0.787342   -0.003817
      2          7           0        0.450219   -0.319736    0.128618
      3          6           0        1.321912   -1.327640    0.095788
      4          6           0        2.641932   -0.858013   -0.058807
      5          6           0        2.510947    0.518141   -0.119082
      6          1           0        0.970553   -2.347202    0.183785
      7          1           0        3.552990   -1.434080   -0.117813
      8          6           0       -2.205861   -0.898574   -0.057811
      9          8           0       -1.940577   -2.018789    0.103391
     10          8           0       -2.538372    0.205159   -0.225624
     11          1           0        0.718884    1.690243   -0.008467
     12          1           0        3.238525    1.308478   -0.233178
     13          8           0       -0.903519    2.760980    0.022815
     14          1           0       -1.561640    2.054797    0.098556
     15          1           0       -0.988181    3.272232    0.838333
 ---------------------------------------------------------------------
 Rotational constants (GHZ):           1.8718773           1.0784680           0.6886724
 Standard basis: 6-31+G(d,p) (6D, 7F)
 There are   201 symmetry adapted cartesian basis functions of A   symmetry.
 There are   201 symmetry adapted basis functions of A   symmetry.
   201 basis functions,   330 primitive gaussians,   201 cartesian basis functions
    34 alpha electrons       34 beta electrons
       nuclear repulsion energy       417.5307066112 Hartrees.
 NAtoms=   15 NActive=   15 NUniq=   15 SFac= 1.00D+00 NAtFMM=   60 NAOKFM=F Big=F
 Integral buffers will be    131072 words long.
 Raffenetti 2 integral format.
 Two-electron integral symmetry is turned on.
 ------------------------------------------------------------------------------
 Polarizable Continuum Model (PCM)
 =================================
 Model                : PCM.
 Atomic radii         : SMD-Coulomb.
 Polarization charges : Total charges.
 Charge compensation  : None.
 Solution method      : On-the-fly selection.
 Cavity type          : VdW (van der Waals Surface) (Alpha=1.000).
 Cavity algorithm     : GePol (No added spheres)
                        Default sphere list used, NSphG=   15.
                        Lebedev-Laikov grids with approx.  5.0 points / Ang**2.
                        Smoothing algorithm: York/Karplus (Gamma=1.0000).
                        Polarization charges: spherical gaussians, with
                                              point-specific exponents (IZeta= 3).
                        Self-potential: point-specific (ISelfS= 7).
                        Self-field    : sphere-specific E.n sum rule (ISelfD= 2).
 1st derivatives      : Analytical E(r).r(x)/FMM algorithm (CHGder, D1EAlg=3).
                        Cavity 1st derivative terms included.
 Solvent              : Water, Eps=  78.355300 Eps(inf)=   1.777849
 ------------------------------------------------------------------------------
 Spheres list:
 ISph  on   Nord     Re0    Alpha      Xe            Ye            Ze
    1   N      1    1.8900  1.000      1.194786      0.787342     -0.003817
    2   N      2    1.8900  1.000      0.450219     -0.319736      0.128618
    3   C      3    1.8500  1.000      1.321912     -1.327640      0.095788
    4   C      4    1.8500  1.000      2.641932     -0.858013     -0.058807
    5   C      5    1.8500  1.000      2.510947      0.518141     -0.119082
    6   H      6    1.2000  1.000      0.970553     -2.347202      0.183785
    7   H      7    1.2000  1.000      3.552990     -1.434080     -0.117813
    8   C      8    1.8500  1.000     -2.205861     -0.898574     -0.057811
    9   O      9    1.5200  1.000     -1.940577     -2.018789      0.103391
   10   O     10    1.5200  1.000     -2.538372      0.205159     -0.225624
   11   H     11    1.2000  1.000      0.718884      1.690243     -0.008467
   12   H     12    1.2000  1.000      3.238525      1.308478     -0.233178
   13   O     13    1.5200  1.000     -0.903519      2.760980      0.022815
   14   H     14    1.2000  1.000     -1.561640      2.054797      0.098556
   15   H     15    1.2000  1.000     -0.988181      3.272232      0.838333
 ------------------------------------------------------------------------------
 ------------------------------------------------------------------------------
 Atomic radii for non-electrostatic terms: SMD-CDS.
 ------------------------------------------------------------------------------
 Nuclear repulsion after PCM non-electrostatic terms =      417.5425624942 Hartrees.
 One-electron integrals computed using PRISM.
 NBasis=   201 RedAO= T EigKep=  4.61D-05  NBF=   201
 NBsUse=   201 1.00D-06 EigRej= -1.00D+00 NBFU=   201
 Initial guess from the checkpoint file:  "/scratch/gongke2021/bizuo/Gau-19806.chk"
 B after Tr=    -0.000000    0.000000    0.000000
         Rot=    0.999995    0.000110   -0.000012   -0.003141 Ang=   0.36 deg.
 ExpMin= 4.38D-02 ExpMax= 5.48D+03 ExpMxC= 8.25D+02 IAcc=2 IRadAn=         4 AccDes= 0.00D+00
 Harris functional with IExCor= 1009 and IRadAn=       4 diagonalized for initial guess.
 HarFok:  IExCor= 1009 AccDes= 0.00D+00 IRadAn=         4 IDoV= 1 UseB2=F ITyADJ=14
 ICtDFT=  3500011 ScaDFX=  1.000000  1.000000  1.000000  1.000000
 FoFCou: FMM=F IPFlag=           0 FMFlag=      100000 FMFlg1=           0
         NFxFlg=           0 DoJE=T BraDBF=F KetDBF=T FulRan=T
         wScrn=  0.000000 ICntrl=       500 IOpCl=  0 I1Cent=   200000004 NGrid=           0
         NMat0=    1 NMatS0=      1 NMatT0=    0 NMatD0=    1 NMtDS0=    0 NMtDT0=    0
 Petite list used in FoFCou.
 Requested convergence on RMS density matrix=1.00D-08 within 128 cycles.
 Requested convergence on MAX density matrix=1.00D-06.
 Requested convergence on             energy=1.00D-06.
 No special actions if energy rises.
 Inv3:  Mode=1 IEnd=     5314683.
 Iteration    1 A*A^-1 deviation from unit magnitude is 4.22D-15 for   1313.
 Iteration    1 A*A^-1 deviation from orthogonality  is 2.94D-15 for   1314    226.
 Iteration    1 A^-1*A deviation from unit magnitude is 4.22D-15 for   1313.
 Iteration    1 A^-1*A deviation from orthogonality  is 1.17D-14 for   1316   1212.
 Error on total polarization charges =  0.04530
 SCF Done:  E(RM062X) =  -491.063518654     A.U. after   10 cycles
            NFock= 10  Conv=0.68D-08     -V/T= 2.0085
 SMD-CDS (non-electrostatic) energy       (kcal/mol) =       7.44
 (included in total energy above)
 D1PCM: PCM CHGder 1st derivatives, ID1Alg=3 FixD1E=F DoIter=F DoCFld=F I1PDM=0.
 Calling FoFJK, ICntrl=      2127 FMM=F ISym2X=0 I1Cent= 0 IOpClX= 0 NMat=1 NMatS=1 NMatT=0.
 ***** Axes restored to original set *****
 -------------------------------------------------------------------
 Center     Atomic                   Forces (Hartrees/Bohr)
 Number     Number              X              Y              Z
 -------------------------------------------------------------------
      1        7          -0.000003914   -0.000013871    0.000009176
      2        7           0.000021787    0.000077334    0.000003465
      3        6          -0.000002805   -0.000026207    0.000051901
      4        6           0.000001514    0.000002822   -0.000064846
      5        6          -0.000015622    0.000010101    0.000025781
      6        1           0.000007770    0.000001987    0.000012012
      7        1           0.000000859   -0.000003155   -0.000005088
      8        6          -0.000100981   -0.000049280   -0.000024168
      9        8           0.000085147    0.000015828    0.000020739
     10        8          -0.000038711    0.000000648   -0.000035475
     11        1           0.000023357   -0.000019978   -0.000023199
     12        1           0.000004161   -0.000004739    0.000012978
     13        8          -0.000032281   -0.000023093   -0.000099560
     14        1           0.000050406    0.000046089    0.000107969
     15        1          -0.000000686   -0.000014485    0.000008314
 -------------------------------------------------------------------
 Cartesian Forces:  Max     0.000107969 RMS     0.000039242

 GradGradGradGradGradGradGradGradGradGradGradGradGradGradGradGradGradGrad
 Berny optimization.
 Using GEDIIS/GDIIS optimizer.
 FormGI is forming the generalized inverse of G from B-inverse, IUseBI=4.
 Internal  Forces:  Max     0.000172643 RMS     0.000046100
 Search for a local minimum.
 Step number   3 out of a maximum of   69
 All quantities printed in internal units (Hartrees-Bohrs-Radians)
 Mixed Optimization -- En-DIIS/RFO-DIIS
 Swapping is turned off.
 Update second derivatives using D2CorX and points    1    2    3
 DE= -1.55D-05 DEPred=-1.56D-05 R= 9.94D-01
 TightC=F SS=  1.41D+00  RLast= 2.28D-02 DXNew= 2.5227D-01 6.8434D-02
 Trust test= 9.94D-01 RLast= 2.28D-02 DXMaxT set to 1.50D-01
 ITU=  1 -1  0
     Eigenvalues ---    0.00246   0.00363   0.00748   0.01145   0.01923
     Eigenvalues ---    0.02084   0.02160   0.02295   0.02313   0.02411
     Eigenvalues ---    0.03544   0.04799   0.04836   0.07810   0.08327
     Eigenvalues ---    0.12653   0.15720   0.16000   0.16000   0.16000
     Eigenvalues ---    0.18340   0.21767   0.21849   0.22879   0.27053
     Eigenvalues ---    0.35756   0.35956   0.36053   0.40643   0.43654
     Eigenvalues ---    0.45313   0.51435   0.52628   0.53678   0.54316
     Eigenvalues ---    0.57316   0.91336   1.24689   1.26308
 En-DIIS/RFO-DIIS/Sim-DIIS IScMMF=       -3 using points:     3    2    1
 RFO step:  Lambda=-1.66715417D-06.
 DidBck=T Rises=F RFO-DIIS coefs:    0.16235   -0.24518    1.08283
 Iteration  1 RMS(Cart)=  0.00529083 RMS(Int)=  0.00000855
 Iteration  2 RMS(Cart)=  0.00001249 RMS(Int)=  0.00000017
 Iteration  3 RMS(Cart)=  0.00000000 RMS(Int)=  0.00000017
 Variable       Old X    -DE/DX   Delta X   Delta X   Delta X     New X
                                 (Linear)    (Quad)   (Total)
    R1        2.53360  -0.00005   0.00032  -0.00044  -0.00013   2.53347
    R2        2.54800   0.00000  -0.00003   0.00004   0.00001   2.54801
    R3        1.92876  -0.00005   0.00015  -0.00024  -0.00009   1.92867
    R4        2.51894   0.00001   0.00000   0.00000   0.00001   2.51894
    R5        2.66371   0.00001  -0.00002   0.00004   0.00002   2.66373
    R6        2.04467  -0.00000  -0.00002   0.00003   0.00001   2.04467
    R7        2.61479   0.00001  -0.00005   0.00008   0.00003   2.61482
    R8        2.03999   0.00000   0.00000  -0.00000   0.00000   2.04000
    R9        2.04145  -0.00000   0.00001  -0.00002  -0.00001   2.04144
   R10        2.19667  -0.00004  -0.00001  -0.00000  -0.00001   2.19667
   R11        2.20131   0.00004  -0.00004   0.00006   0.00002   2.20133
   R12        3.99991  -0.00000   0.00029  -0.00061  -0.00031   3.99960
   R13        3.67388  -0.00005  -0.00066   0.00049  -0.00017   3.67370
   R14        1.82977  -0.00001  -0.00007   0.00007  -0.00000   1.82977
   R15        1.82593  -0.00002  -0.00011   0.00014   0.00003   1.82595
    A1        1.96674   0.00003  -0.00010   0.00018   0.00008   1.96681
    A2        2.06233  -0.00010  -0.00028   0.00017  -0.00011   2.06221
    A3        2.25412   0.00007   0.00038  -0.00034   0.00004   2.25415
    A4        1.83254  -0.00000  -0.00005   0.00005  -0.00000   1.83254
    A5        1.94248  -0.00001   0.00005  -0.00008  -0.00002   1.94246
    A6        2.09226  -0.00000   0.00016  -0.00023  -0.00007   2.09219
    A7        2.24845   0.00001  -0.00021   0.00030   0.00009   2.24854
    A8        1.82088   0.00000   0.00000   0.00001   0.00001   1.82089
    A9        2.23767  -0.00000   0.00004  -0.00006  -0.00002   2.23765
   A10        2.22464   0.00000  -0.00004   0.00005   0.00001   2.22465
   A11        1.86215  -0.00002   0.00010  -0.00017  -0.00007   1.86208
   A12        2.11811   0.00001  -0.00002   0.00004   0.00002   2.11813
   A13        2.30293   0.00001  -0.00008   0.00012   0.00005   2.30298
   A14        2.31067   0.00015  -0.00072   0.00107   0.00035   2.31102
   A15        2.63882  -0.00013  -0.00081   0.00081   0.00001   2.63883
   A16        1.73837  -0.00009  -0.00165   0.00168   0.00003   1.73839
   A17        1.95855   0.00005  -0.00000   0.00011   0.00011   1.95866
   A18        1.83415  -0.00001  -0.00053   0.00065   0.00011   1.83426
   A19        2.79043   0.00004  -0.00073   0.00089   0.00015   2.79059
   A20        3.20125   0.00017  -0.00009   0.00066   0.00057   3.20181
   A21        3.13864  -0.00001  -0.00006   0.00000  -0.00006   3.13858
    D1       -0.00060   0.00000   0.00045  -0.00054  -0.00009  -0.00069
    D2        3.13732  -0.00000  -0.00158   0.00204   0.00045   3.13778
    D3        0.00021  -0.00002  -0.00100   0.00100  -0.00001   0.00021
    D4        3.14133  -0.00001  -0.00032   0.00026  -0.00006   3.14127
    D5       -3.13720  -0.00002   0.00131  -0.00194  -0.00063  -3.13783
    D6        0.00391  -0.00000   0.00199  -0.00268  -0.00068   0.00323
    D7       -0.06814   0.00004   0.00185  -0.00091   0.00094  -0.06720
    D8        3.06909   0.00003  -0.00057   0.00217   0.00159   3.07068
    D9        0.00075   0.00002   0.00028  -0.00013   0.00016   0.00091
   D10       -3.14067   0.00000  -0.00016   0.00027   0.00010  -3.14057
   D11       -0.00063  -0.00003  -0.00087   0.00070  -0.00016  -0.00079
   D12        3.14114  -0.00001  -0.00030   0.00027  -0.00004   3.14110
   D13        3.14077  -0.00002  -0.00037   0.00027  -0.00010   3.14067
   D14       -0.00064   0.00001   0.00020  -0.00017   0.00003  -0.00062
   D15        0.00024   0.00003   0.00108  -0.00098   0.00010   0.00034
   D16       -3.14080   0.00002   0.00030  -0.00014   0.00016  -3.14064
   D17       -3.14152   0.00001   0.00052  -0.00055  -0.00003  -3.14155
   D18        0.00061  -0.00000  -0.00026   0.00029   0.00004   0.00065
   D19        1.05748   0.00004   0.00162   0.00007   0.00168   1.05916
   D20        0.03797   0.00006   0.00511  -0.00067   0.00444   0.04241
   D21        1.97091   0.00002   0.00368   0.00094   0.00462   1.97553
   D22       -0.71877   0.00006  -0.00095   0.00263   0.00168  -0.71709
   D23       -2.74827   0.00005  -0.00015   0.00166   0.00151  -2.74676
         Item               Value     Threshold  Converged?
 Maximum Force            0.000173     0.000450     YES
 RMS     Force            0.000046     0.000300     YES
 Maximum Displacement     0.020273     0.001800     NO 
 RMS     Displacement     0.005291     0.001200     NO 
 Predicted change in Energy=-6.331468D-07
 GradGradGradGradGradGradGradGradGradGradGradGradGradGradGradGradGradGrad

                          Input orientation:                          
 ---------------------------------------------------------------------
 Center     Atomic      Atomic             Coordinates (Angstroms)
 Number     Number       Type             X           Y           Z
 ---------------------------------------------------------------------
      1          7           0       -1.194673    0.787145    0.004058
      2          7           0       -0.449197   -0.320097   -0.121008
      3          6           0       -1.320731   -1.328159   -0.088706
      4          6           0       -2.641618   -0.858372    0.057876
      5          6           0       -2.511312    0.518035    0.114018
      6          1           0       -0.968577   -2.347895   -0.171393
      7          1           0       -3.552772   -1.434519    0.114575
      8          6           0        2.206747   -0.898327    0.054587
      9          8           0        1.943590   -2.018517   -0.110204
     10          8           0        2.537785    0.205296    0.226081
     11          1           0       -0.719029    1.690135    0.007338
     12          1           0       -3.239606    1.308570    0.221982
     13          8           0        0.903131    2.761132   -0.021912
     14          1           0        1.561475    2.055115   -0.097251
     15          1           0        0.988535    3.272870   -0.837065
 ---------------------------------------------------------------------
                    Distance matrix (angstroms):
                    1          2          3          4          5
     1  N    0.000000
     2  N    1.340657   0.000000
     3  C    2.121086   1.332968   0.000000
     4  C    2.191865   2.264608   1.409585   0.000000
     5  C    1.348351   2.238308   2.206131   1.383701   0.000000
     6  H    3.148075   2.093862   1.081994   2.251734   3.267269
     7  H    3.241702   3.305997   2.243801   1.079519   2.212941
     8  C    3.796449   2.723825   3.556457   4.848531   4.926428
     9  O    4.211115   2.934310   3.336592   4.732686   5.131328
    10  O    3.784057   3.052633   4.163978   5.290170   5.060014
    11  H    1.020607   2.032317   3.079183   3.192772   2.144172
    12  H    2.121585   3.249089   3.275812   2.253921   1.080284
    13  O    2.880638   3.366389   4.655354   5.066796   4.087588
    14  H    3.035517   3.112073   4.444517   5.116490   4.358308
    15  H    3.413607   3.935635   5.202136   5.571902   4.554405
                    6          7          8          9         10
     6  H    0.000000
     7  H    2.755739   0.000000
     8  C    3.497856   5.784735   0.000000
     9  O    2.931373   5.531869   1.162427   0.000000
    10  O    4.355610   6.308431   1.164894   2.326263   0.000000
    11  H    4.049679   4.219604   3.906730   4.566997   3.586005
    12  H    4.322273   2.762996   5.878875   6.168093   5.881791
    13  O    5.443141   6.121861   3.885474   4.892381   3.043993
    14  H    5.078697   6.194993   3.026921   4.091536   2.116496
    15  H    5.988857   6.609735   4.435986   5.425794   3.597286
                   11         12         13         14         15
    11  H    0.000000
    12  H    2.558313   0.000000
    13  O    1.944040   4.396781   0.000000
    14  H    2.311894   4.869252   0.968273   0.000000
    15  H    2.476660   4.780924   0.966253   1.535745   0.000000
 Stoichiometry    C4H6N2O3
 Framework group  C1[X(C4H6N2O3)]
 Deg. of freedom    39
 Full point group                 C1      NOp   1
 Largest Abelian subgroup         C1      NOp   1
 Largest concise Abelian subgroup C1      NOp   1
                         Standard orientation:                         
[...]
 ! D17   D(7,4,5,1)            179.999          -DE/DX =    0.0                 !
 ! D18   D(7,4,5,12)             0.0393         -DE/DX =    0.0                 !
 ! D19   D(8,10,14,13)          54.6989         -DE/DX =    0.0                 !
 ! D20   D(1,11,13,14)           1.2349         -DE/DX =    0.0                 !
 ! D21   D(1,11,13,15)         112.2352         -DE/DX =    0.0                 !
 ! D22   D(11,13,14,10)        -35.392          -DE/DX =    0.0                 !
 ! D23   D(15,13,14,10)       -151.9512         -DE/DX =    0.0                 !
 --------------------------------------------------------------------------------
 GradGradGradGradGradGradGradGradGradGradGradGradGradGradGradGradGradGrad


 ----------------------------------------------------------------------

 Electric dipole moment (input orientation):
 (Debye = 10**-18 statcoulomb cm , SI units = C m)
                  (au)            (Debye)         (10**-30 SI)
   Tot        0.109984D+01      0.279551D+01      0.932482D+01
   x         -0.279007D+00     -0.709165D+00     -0.236552D+01
   y          0.844312D+00      0.214603D+01      0.715838D+01
   z         -0.647254D+00     -0.164515D+01     -0.548765D+01

 Dipole polarizability, Alpha (input orientation).
 (esu units = cm**3 , SI units = C**2 m**2 J**-1)
 Alpha(0;0):
               (au)            (10**-24 esu)      (10**-40 SI)
   iso        0.931184D+02      0.137987D+02      0.153532D+02
   aniso      0.493770D+02      0.731692D+01      0.814117D+01
   xx         0.987906D+02      0.146393D+02      0.162884D+02
   yx         0.495502D+01      0.734258D+00      0.816972D+00
   yy         0.117565D+03      0.174213D+02      0.193838D+02
   zx        -0.208217D+01     -0.308546D+00     -0.343304D+00
   zy         0.391899D+01      0.580734D+00      0.646154D+00
   zz         0.630001D+02      0.933566D+01      0.103873D+02

 ----------------------------------------------------------------------

 Dipole orientation:
     7         -1.98279553         -0.66049711          1.70741064
     7         -0.82993465          0.67182782         -0.11293235
     6         -2.66199561          2.02209300         -1.19258573
     6         -5.01809831          1.54776244         -0.04407713
     6         -4.48666434         -0.20274095          1.82430603
     1         -2.22195347          3.27712480         -2.74562456
     1         -6.83274394          2.35714726         -0.50619561
     6          3.76345923          0.47394923         -2.41970909
     8          3.10920043          2.10085631         -3.74276264
     8          4.53492863         -1.15880176         -1.16084174
     1         -0.91007781         -1.84765793          2.78453009
     1         -5.67448498         -1.13688860          3.19685383
     8          2.28336439         -3.45766698          3.60775418
     1          3.35665048         -2.69774576          2.33548119
     1          2.96096866         -2.88682903          5.20430406

 Electric dipole moment (dipole orientation):
 (Debye = 10**-18 statcoulomb cm , SI units = C m)
                  (au)            (Debye)         (10**-30 SI)
   Tot        0.109984D+01      0.279551D+01      0.932482D+01
   x          0.000000D+00      0.000000D+00      0.000000D+00
   y          0.000000D+00      0.000000D+00      0.000000D+00
   z          0.109984D+01      0.279551D+01      0.932482D+01

 Dipole polarizability, Alpha (dipole orientation).
 (esu units = cm**3 , SI units = C**2 m**2 J**-1)
 Alpha(0;0):
               (au)            (10**-24 esu)      (10**-40 SI)
   iso        0.931184D+02      0.137987D+02      0.153532D+02
   aniso      0.493770D+02      0.731692D+01      0.814117D+01
   xx         0.987051D+02      0.146266D+02      0.162743D+02
   yx        -0.975719D+01     -0.144587D+01     -0.160874D+01
   yy         0.892838D+02      0.132305D+02      0.147209D+02
   zx        -0.849059D-01     -0.125818D-01     -0.139991D-01
   zy        -0.263248D+02     -0.390093D+01     -0.434037D+01
   zz         0.913665D+02      0.135391D+02      0.150643D+02

 ----------------------------------------------------------------------
 1\1\GINC-NODE3\Freq\RM062X\6-31+G(d,p)\C4H6N2O3\GONGKE2021\05-Nov-2023
 \0\\#N Geom=AllCheck Guess=TCheck SCRF=Check GenChk RM062X/6-31+G(d,p)
  Freq\\Title Card Required\\0,1\N,-1.1930990072,0.7848253296,0.0027674
 529\N,-0.4498145749,-0.3233419268,-0.1263373566\C,-1.3226869232,-1.330
 2337657,-0.0926948005\C,-2.6423780966,-0.8586380627,0.0586123967\C,-2.
 5098000369,0.5175067525,0.1165318159\H,-0.9721974355,-2.350329426,-0.1
 779545009\H,-3.5542175415,-1.4335005826,0.1173277119\C,2.2049339226,-0
 .8965706218,0.0557992169\O,1.9448051944,-2.0180127472,-0.1052497149\O,
 2.5335706411,0.2083461388,0.2234764629\H,-0.7160160667,1.6871351008,0.
 0055911694\H,-3.2365537039,1.3089602663,0.2280293914\O,0.8993570206,2.
 7646338339,-0.0254317394\H,1.5657988247,2.064477572,-0.0820050856\H,0.
 9920467831,3.2671561389,-0.8454854202\\Version=ES64L-G16RevA.03\State=
 1-A\HF=-491.063522\RMSD=2.779e-09\RMSF=1.882e-05\ZeroPoint=0.1087378\T
 hermal=0.1199648\Dipole=-0.2790071,0.8443121,-0.6472538\DipoleDeriv=-0
 .1659475,-0.4864586,-0.035881,-0.5672795,-1.0087354,0.0170076,-0.03869
 37,0.0066175,-0.238877,-1.029716,-0.0274331,0.0568589,0.0534037,0.0937
 647,0.0231046,0.0526643,0.0361102,-0.3165322,0.5100819,-0.2384378,-0.0
 767881,-0.0137826,0.096761,0.0140524,-0.0639653,0.034115,-0.1277171,-0
 .2107312,0.1220955,-0.0077761,0.0767538,-0.3935136,-0.0089945,-0.00950
 47,-0.0147626,-0.3536819,0.1009431,0.4579999,0.0006642,0.2152577,0.441
 7561,0.0084994,-0.0057917,-0.0166742,-0.1018305,0.0954828,0.0787618,0.
 0156316,0.0430974,0.0096486,-0.0140453,0.0123551,-0.0167613,0.2137795,
 0.0330199,-0.0672139,0.0183926,-0.0594257,0.1201977,-0.0008232,0.01842
 18,-0.0007566,0.2579808,1.3051081,0.6812246,0.1151339,0.6211996,3.5276
 305,0.3999035,0.1306598,0.412668,0.7751086,-0.5473292,-0.2932745,-0.04
 28251,-0.2355041,-1.8037026,-0.2007761,-0.0451192,-0.2051509,-0.387198
 2,-0.6469346,-0.372461,-0.0677716,-0.3966497,-1.8536441,-0.2021114,-0.
 080769,-0.1959444,-0.3981393,0.5508118,0.3213309,0.0010438,0.3250607,0
 .675326,-0.0206377,0.0010711,-0.0187307,0.4045513,0.1133975,0.0306744,
 0.0149348,0.0462215,0.084702,-0.0136083,0.0161158,-0.0121313,0.2561912
 ,-0.9387876,-0.1739482,-0.1041466,-0.1269197,-1.0057181,-0.0105486,-0.
 093974,0.0101339,-0.7302371,0.4213616,-0.0277495,0.0527708,-0.0011343,
 0.5750316,-0.0049603,0.0646125,-0.0354355,0.393794,0.4092395,-0.005110
 7,0.059758,0.0197012,0.4404957,0.0139378,0.0419173,0.0167028,0.3528079
 \Polar=98.790577,4.9550158,117.5645999,-2.0821731,3.918988,63.0001259\
 Quadrupole=3.7977484,-0.039398,-3.7583504,-0.0911793,-2.2887017,-5.155
 2631\PG=C01 [X(C4H6N2O3)]\NImag=0\\0.75948945,0.17014701,0.90273189,-0
 .05382318,0.02564543,0.11337259,-0.17580080,0.06100540,0.01341288,0.56
 597631,0.13291593,-0.23855724,-0.02181290,0.04781173,0.56717793,0.0169
 9813,-0.01474047,-0.07227426,-0.03945775,0.01894286,0.11318295,-0.0220
 0049,-0.02708009,0.00209429,-0.23652231,-0.15911200,0.00751719,0.63379
 326,-0.00356465,-0.13195567,-0.00709097,-0.13053157,-0.26295846,0.0031
 4053,-0.05894618,0.88281011,0.00323741,-0.00478970,0.01248401,0.008862
 19,0.00575272,-0.07472413,-0.05015489,0.04309197,0.15128603,-0.0285054
 3,-0.01690021,0.00306090,-0.07260061,-0.06514075,0.00559841,-0.2867019
 0,0.08513370,0.02569509,0.77693726,-0.08725655,-0.05618327,0.00504632,
 0.01040624,0.01798997,-0.00113172,0.04927374,-0.14155501,-0.00851696,0
 .15970909,0.70170009,-0.00045045,-0.00189335,0.01290168,0.00960987,0.0
 0611342,0.02002025,0.02386321,-0.01194188,-0.07034940,-0.05524695,0.01
 410647,0.12575799,-0.35549088,-0.04717162,0.02581042,-0.08901679,0.042
 79059,0.01254692,0.01793815,0.01882510,0.00020356,-0.11599681,-0.00771
 233,0.00424933,0.73761577,-0.04887699,-0.12679320,0.00113343,0.0117971
 8,-0.03928800,-0.00402718,0.08722962,-0.02988468,-0.01046445,-0.039225
 30,-0.37850721,-0.01216971,-0.13959388,0.80506371,0.02586612,0.0011130
 2,-0.06439688,0.01107754,-0.00706526,0.01726892,0.00364250,-0.00389307
 ,0.00950776,0.00273709,-0.01527403,-0.06837805,-0.06575843,0.04848707,
 0.14321954,-0.00226581,-0.00630245,0.00058513,0.01181129,-0.02125991,-
 0.00290636,-0.09510431,0.10219539,0.01112512,0.00205012,0.02249718,0.0
 0113739,-0.00624112,0.00150497,0.00113634,0.08729054,-0.00358923,-0.00
 254682,-0.00014447,0.00871623,-0.01818636,-0.00141857,0.09376544,-0.32
 332337,-0.02358813,-0.00180642,0.00109126,0.00011682,-0.00024617,0.000
 17588,-0.00020738,-0.09809548,0.34312217,0.00070876,0.00010420,0.00722
 365,-0.00139915,0.00160791,-0.00657315,0.01066689,-0.02449313,-0.03490
 437,-0.00009863,-0.00221628,0.00168798,0.00105851,-0.00036173,0.004638
 60,-0.01085768,0.02541614,0.02760105,0.00049656,0.00253320,0.00060059,
 -0.00511932,0.00053312,0.00114423,-0.00803023,-0.01633206,-0.00028746,
 -0.28021680,-0.14247473,0.01701029,0.00606619,0.00380172,-0.00053573,0
 .00045873,0.00040309,-0.00022877,0.28614133,-0.00099399,-0.00670148,-0
 .00053991,0.00469040,-0.00019889,-0.00080161,0.00962693,0.01227048,-0.
 00018344,-0.14074987,-0.14525732,0.00777824,-0.02356283,-0.00330317,0.
 00218035,-0.00091599,-0.00027330,0.00018420,0.15218589,0.14208595,0.00
 042076,-0.00084627,0.00528933,0.00134730,-0.00041211,0.00639494,0.0010
 5310,0.00231392,-0.00245407,0.01706079,0.00793039,-0.02825501,-0.00191
 615,-0.00045502,-0.00129435,-0.00028912,0.00005302,-0.00206221,-0.0175
 4776,-0.00877906,0.02347861,0.00174573,0.00284390,0.00046499,-0.003034
 21,-0.00234600,0.00059014,-0.00105955,-0.00243351,-0.00001996,0.001820
 36,-0.00054079,-0.00038591,0.00265776,-0.00081756,-0.00038530,0.000108
 40,-0.00018426,0.00013134,0.00031664,-0.00010272,-0.00006608,0.2383030
 0,0.00184894,-0.00094166,-0.00005281,-0.00198847,-0.00622879,-0.001208
 21,-0.00139487,0.00137893,0.00007173,-0.00100717,-0.00023928,0.0002403
 3,-0.00027814,-0.00053231,0.00000477,-0.00002838,-0.00035047,-0.000103
 58,-0.00012777,0.00007498,0.00004772,0.41969452,1.72419173,0.00052133,
 0.00018232,-0.00039979,-0.00061816,-0.00084980,-0.00178775,-0.00002593
 ,-0.00009101,-0.00012815,0.00007639,0.00002233,0.00013622,0.00017338,-
 0.00021616,0.00004425,0.00000518,-0.00004879,-0.00013030,0.00002765,-0
 .00000904,0.00004009,0.06011744,0.23264808,0.18071919,-0.00195935,-0.0
 0120101,-0.00021303,-0.00365981,0.00690769,0.00006001,0.00090033,0.000
 49294,-0.00001000,-0.00034849,0.00030506,0.00000491,-0.00098590,0.0008
 1420,0.00014171,-0.00013907,0.00004302,0.00003097,-0.00008644,0.000004
 36,0.00001022,-0.11114450,-0.19300449,-0.02720222,0.09661664,0.0005575
 2,0.00114889,0.00012010,0.00221928,-0.00189199,0.00025033,0.00020113,-
 0.00079398,0.00001364,0.00062973,0.00006957,-0.00014688,0.00044152,-0.
 00018963,-0.00003810,-0.00007983,0.00015064,0.00004917,0.00008724,-0.0
 0003348,-0.00002290,-0.19332755,-0.87548953,-0.11590029,0.22682110,0.9
 9318848,-0.00016681,-0.00004340,0.00044758,-0.00012351,0.00054473,0.00
 064103,0.00009320,-0.00005725,-0.00015433,0.00001931,0.00000966,0.0000
 1797,-0.00004321,0.00006144,0.00000380,0.00000361,0.00001053,-0.000021
 36,-0.00000158,-0.00000180,-0.00001434,-0.02724874,-0.11592770,-0.0890
 4396,0.03349822,0.13801194,0.05607113,0.00004609,-0.00115326,-0.000129
 47,-0.00497117,-0.00275418,-0.00157125,-0.00078614,0.00153836,0.000014
 40,-0.00104385,-0.00001218,0.00022676,-0.00105542,0.00013869,0.0001612
 0,-0.00002582,0.00001893,-0.00010236,-0.00019019,0.00009577,0.00006924
 ,-0.13109116,-0.22545212,-0.03363214,0.02147146,-0.03645672,-0.0057473
 2,0.11950985,-0.00085801,-0.00005973,-0.00009711,0.00143519,0.00189751
 ,0.00033595,0.00026248,-0.00001938,-0.00002325,0.00002874,0.00016951,0
 .00000739,-0.00033597,0.00027354,0.00004920,-0.00005371,0.00021465,-0.
 00000447,-0.00001373,0.00000728,-0.00000285,-0.22139827,-0.83618577,-0
 .11475664,-0.04183868,-0.11917219,-0.02312077,0.26105500,0.95503770,-0
 .00021018,-0.00008984,0.00003037,-0.00025207,-0.00012673,0.00080099,-0
 .00018227,0.00016085,0.00011835,-0.00006607,-0.00006089,-0.00004765,-0
 .00008765,0.00009322,-0.00001835,-0.00001045,0.00002761,0.00005117,-0.
 00002511,0.00001340,-0.00002123,-0.03357297,-0.11642992,-0.08946044,-0
 .00619055,-0.02178077,0.03215098,0.04120759,0.13713106,0.05728182,-0.1
 5061576,-0.15636728,0.00480865,0.01795531,0.02091291,-0.00155693,-0.00
 135939,0.00837126,0.00096131,-0.00536741,0.00183503,0.00100056,-0.0026
 6730,-0.02255416,-0.00154195,0.00125665,0.00108971,0.00010847,0.000531
 06,-0.00080621,0.00009004,0.00063528,0.00036756,0.00012411,-0.00024728
 ,-0.00012461,-0.00004802,-0.00010762,-0.00049389,-0.00003982,0.1383018
 8,-0.14195332,-0.34912058,-0.00439158,-0.01154079,-0.02229289,0.000438
 47,0.00747158,0.00007737,-0.00096578,0.00194844,0.00603702,-0.00009500
 ,-0.00268603,0.00680794,0.00098483,-0.00064826,-0.00008882,-0.00004301
 ,-0.00007947,0.00097455,-0.00005019,0.00082056,0.00003934,0.00010163,-
 0.00034488,0.00009650,-0.00003181,-0.00025399,-0.00029051,-0.00002695,
 0.14367567,0.35964098,0.00531314,-0.00342015,-0.01367943,-0.00326753,-
 0.00247082,-0.00968686,0.00087306,-0.00103006,0.00427386,0.00102085,-0
 .00012889,0.00384065,-0.00037772,0.00294420,-0.00573258,0.00003188,-0.
 00019739,0.00187049,0.00012293,0.00003631,0.00184184,0.00003855,0.0000
 0114,-0.00000455,-0.00000478,0.00000033,-0.00001997,-0.00001839,0.0000
 0590,-0.00001472,-0.00301913,0.00424599,0.02312928,-0.01510423,0.02661
 369,0.00259901,-0.00389865,-0.00234784,0.00092293,-0.00044724,-0.00344
 933,0.00036341,0.01063969,-0.00460186,-0.00100047,-0.19513390,0.147074
 32,0.02370117,0.00090193,0.00005338,-0.00001813,-0.00037966,0.00077662
 ,-0.00020786,0.00034341,0.00002364,0.00005470,-0.00019285,0.00008503,-
 0.00002611,-0.00011588,-0.00005042,-0.00002297,0.00055967,-0.00034628,
 -0.00029317,0.20287732,-0.00878325,0.01285145,0.00165279,-0.00384410,0
 .00040779,0.00000640,-0.00062346,-0.00526355,-0.00046593,0.01810149,-0
 .00407877,-0.00212645,0.15752071,-0.23248799,-0.02602802,0.00122380,0.
 00013676,-0.00014547,-0.00052322,0.00058574,0.00023078,0.00015308,-0.0
 0001831,0.00001243,-0.00006410,0.00006285,0.00000287,-0.00004654,-0.00
 001841,-0.00000480,0.00062644,-0.00035699,0.00003867,-0.16380326,0.228
 12190,0.00076724,-0.00176746,-0.00255243,0.00084976,-0.00011575,0.0068
 2216,0.00051462,-0.00020250,0.00506704,0.00014205,0.00012519,0.0027049
 3,0.02423729,-0.02506363,-0.03524688,0.00003617,-0.00002747,0.00066162
 ,-0.00026924,0.00010345,-0.00285968,-0.00011513,-0.00000699,0.00006553
 ,0.00008715,-0.00002831,-0.00007028,0.00005139,0.00001484,-0.00001466,
 -0.00023622,0.00013398,-0.00219558,-0.02607990,0.02683268,0.02759179,-
 0.00910737,-0.00594193,0.00117514,-0.00112968,0.00122065,0.00015360,-0
 .00069967,-0.00127001,0.00000923,-0.00074460,-0.00152841,-0.00003760,0
 .00250406,-0.00134850,-0.00017090,-0.00010749,-0.00017285,-0.00000894,
 0.00000218,-0.00025546,-0.00004502,-0.00116201,-0.00129774,-0.00048623
 ,0.00036412,0.00065089,0.00016514,0.00056531,0.00168218,0.00014140,0.0
 0316072,0.00336685,-0.00205573,-0.00003752,0.00006158,0.00001502,0.291
 13381,-0.00907010,-0.00337230,0.00050886,-0.00059277,0.00195245,0.0001
 2378,-0.00067341,-0.00058337,0.00009366,-0.00079571,-0.00121882,0.0000
 2226,0.00191431,-0.00127938,-0.00025046,-0.00003148,-0.00010501,0.0000
 0218,-0.00001126,-0.00021792,-0.00001541,0.00122043,0.00278746,0.00062
 469,-0.00042160,-0.00147254,-0.00026380,0.00037820,-0.00349443,-0.0001
 1002,0.00362773,-0.00233290,-0.00057445,-0.00003601,0.00004798,0.00000
 551,-0.23849606,0.43838679,0.00138811,0.00098306,0.00156772,0.00004990
 ,-0.00022173,-0.00010478,0.00007957,0.00009728,0.00001199,0.00005111,0
 .00014861,-0.00004451,-0.00015099,0.00008102,0.00041597,0.00000387,0.0
 0001659,-0.00004090,-0.00000521,0.00002981,-0.00009534,-0.00043510,-0.
 00068123,-0.00011018,0.00021538,0.00048217,0.00006277,-0.00048659,0.00
 127668,0.00030895,-0.00159858,-0.00075304,-0.00367114,0.00001345,-0.00
 000562,0.00002155,-0.09010592,-0.21139107,0.42645809,0.00017508,-0.000
 32585,-0.00011351,0.00006189,-0.00036931,-0.00004871,0.00016163,0.0000
 4825,-0.00001821,0.00014753,0.00024576,0.00000278,-0.00038285,0.000165
 74,0.00005647,0.00000874,0.00001856,-0.00000086,0.00000974,0.00003260,
 0.00000026,0.00175333,0.00288155,0.00090113,-0.00068283,-0.00187847,-0
 .00040221,-0.00201208,-0.00000087,-0.00073661,-0.00324896,0.00035541,0
 .00027711,-0.00000101,-0.00000317,0.00000153,-0.25424861,0.26453880,0.
 02086870,0.25682445,-0.00041271,-0.00067278,0.00007375,0.00037238,0.00
 018507,0.00010038,-0.00002571,-0.00024909,-0.00000765,0.00009280,-0.00
 006175,-0.00001999,0.00017164,-0.00001116,-0.00000661,-0.00001139,-0.0
 0002055,0.00000187,0.00001660,-0.00001441,-0.00000846,-0.00369551,-0.0
 0863256,-0.00175212,0.00153238,0.00441528,0.00082084,0.00268729,0.0020
 6068,0.00124313,0.00045695,0.00185226,-0.00009929,0.00000864,0.0000071
 4,-0.00000118,0.24127406,-0.27383312,0.00348132,-0.26043022,0.29088318
 ,0.00015345,0.00009013,0.00005713,-0.00005309,-0.00002067,-0.00003430,
 0.00002055,0.00004160,-0.00002261,0.00000151,0.00003764,0.00000374,-0.
 00006226,0.00002919,-0.00001364,0.00000402,0.00000166,-0.00000184,0.00
 000010,0.00000655,0.00000910,0.00072515,0.00105434,-0.00002601,-0.0003
 4346,-0.00079104,-0.00002661,-0.00017862,-0.00038439,-0.00113158,-0.00
 038382,-0.00036179,0.00010518,-0.00000194,-0.00000219,0.00000495,0.052
 37279,-0.03081113,-0.03761636,-0.02507722,0.00164803,0.03838349,-0.001
 10278,-0.00069952,-0.00033282,-0.00005146,0.00023737,0.00000945,-0.000
 08215,-0.00007770,0.00001879,-0.00006906,-0.00014523,0.00001629,0.0001
 8904,-0.00011005,-0.00012781,-0.00000277,-0.00001395,0.00000959,0.0000
 0019,-0.00002551,0.00002029,-0.00019248,-0.00023706,-0.00003666,0.0000
 9396,0.00017373,0.00002805,-0.00019339,0.00057995,0.00004773,0.0012131
 7,0.00021449,0.00135895,-0.00001109,0.00000400,-0.00000174,-0.03049325
 ,-0.02155105,0.07011229,0.00143396,0.01796279,-0.02717715,0.02926812,-
 0.00011061,0.00017253,-0.00005094,0.00004364,-0.00000811,-0.00001094,0
 .00002478,0.00004967,-0.00001842,-0.00001854,0.00004401,0.00000834,-0.
 00007690,-0.00004434,-0.00005630,0.00000556,0.00000335,0.00000200,0.00
 000137,0.00000101,0.00001645,0.00011370,0.00014623,0.00003236,-0.00004
 599,-0.00008886,-0.00001545,0.00021672,-0.00042045,-0.00003935,-0.0006
 1710,-0.00104327,0.00064851,-0.00000032,0.00000242,-0.00000237,0.00205
 475,-0.15526487,0.20645614,-0.00527877,-0.01590820,0.02946206,0.003687
 73,0.17235889,-0.00072382,-0.00052753,-0.00007126,-0.00003817,0.000134
 14,0.00005398,-0.00005508,-0.00004627,-0.00001198,-0.00005184,-0.00009
 783,0.00000322,0.00011700,-0.00007168,-0.00001810,-0.00000507,-0.00001
 018,-0.00000041,-0.00000493,-0.00001747,0.00000233,0.00016160,0.000342
 35,0.00008586,-0.00008453,-0.00021938,-0.00004440,0.00013556,-0.000431
 54,-0.00003399,0.00133133,0.00081427,-0.00005647,-0.00000413,0.0000018
 7,-0.00000005,0.03887802,0.24203539,-0.38716383,0.00428934,-0.00547404
 ,0.00030936,-0.04394527,-0.23643211,0.38694574\\0.00005471,-0.00002163
 ,-0.00000461,-0.00003321,0.00005809,-0.00000538,-0.00001220,-0.0000234
 0,-0.00000652,0.00000578,-0.00000319,0.00001003,-0.00001348,0.00002230
 ,0.00000510,0.00000786,0.00000134,-0.00000649,0.00000084,-0.00000112,-
 0.00000128,-0.00002705,-0.00002165,-0.00000681,0.00000490,0.00000468,-
 0.00000851,0.00002654,0.00001819,0.00000018,-0.00002084,-0.00003680,0.
 00001721,0.00000310,0.00000123,-0.00000545,0.00001609,-0.00000064,-0.0
 0001194,-0.00001686,-0.00001621,0.00001991,0.00000380,0.00001880,0.000
 00456\\\@


 BREAD HAS TO MOLD IN ORDER TO GET PENICILLIN.
          -- JERRY BOATZ
 Job cpu time:       0 days  0 hours 38 minutes 30.4 seconds.
 Elapsed time:       0 days  0 hours  1 minutes 56.4 seconds.
 File lengths (MBytes):  RWF=    103 Int=      0 D2E=      0 Chk=      9 Scr=      1
 Normal termination of Gaussian 16 at Sun Nov  5 09:21:08 2023.
